DF-ISE text

Info {
  version   = 1.0
  type      = xyplot
  datasets  = [
    "time"
    "electrode_2 OuterVoltage" "electrode_2 InnerVoltage" "electrode_2 QuasiFermiPotential" "electrode_2 DisplacementCurrent" "electrode_2 eCurrent"
    "electrode_2 hCurrent" "electrode_2 TotalCurrent" "electrode_2 Charge" "electrode_1 OuterVoltage" "electrode_1 InnerVoltage"
    "electrode_1 QuasiFermiPotential" "electrode_1 DisplacementCurrent" "electrode_1 eCurrent" "electrode_1 hCurrent" "electrode_1 TotalCurrent"
    "electrode_1 Charge" ]
  functions = [
    Time
    OuterVoltage InnerVoltage QuasiFermiPotential DisplacementCurrent eCurrent
    hCurrent TotalCurrent Charge OuterVoltage InnerVoltage
    QuasiFermiPotential DisplacementCurrent eCurrent hCurrent TotalCurrent
    Charge ]
}

Data {
      0.00000000000000E+00
      0.00000000000000E+00   0.00000000000000E+00   0.00000000000000E+00   0.00000000000000E+00  -3.61081185789043E-20
     -1.34180243047780E-17  -1.34541324233569E-17  -1.79763366216036E-13   0.00000000000000E+00   0.00000000000000E+00
      0.00000000000000E+00   0.00000000000000E+00  -8.25266890179011E-20   1.35366591123748E-17   1.34541324233569E-17
      1.79763366216036E-13
      1.00000000000000E-04
     -1.00000000000000E-03  -1.00000000000000E-03   0.00000000000000E+00   0.00000000000000E+00  -7.91202778892961E-05
     -2.80432700245696E-05  -1.07163547913866E-04  -1.79950519048071E-13   0.00000000000000E+00   0.00000000000000E+00
      0.00000000000000E+00   0.00000000000000E+00   7.91205860950477E-05   2.80429618188179E-05   1.07163547913866E-04
      1.79950519048071E-13
      2.00000000000000E-04
     -2.00000000000000E-03  -2.00000000000000E-03   0.00000000000000E+00   0.00000000000000E+00  -1.58095411440919E-04
     -5.60208938764702E-05  -2.14116305317390E-04  -1.80137963056039E-13   0.00000000000000E+00   0.00000000000000E+00
      0.00000000000000E+00   0.00000000000000E+00   1.58096027421325E-04   5.60202778960647E-05   2.14116305317390E-04
      1.80137963056039E-13
      3.00000000000000E-04
     -3.00000000000000E-03  -3.00000000000000E-03   0.00000000000000E+00   0.00000000000000E+00  -2.36925369307784E-04
     -8.39328808493545E-05  -3.20858250157139E-04  -1.80325698643918E-13   0.00000000000000E+00   0.00000000000000E+00
      0.00000000000000E+00   0.00000000000000E+00   2.36926292631153E-04   8.39319575259861E-05   3.20858250157139E-04
      1.80325698643918E-13
      4.00000000000000E-04
     -4.00000000000000E-03  -4.00000000000000E-03   0.00000000000000E+00   0.00000000000000E+00  -3.15610113452911E-04
     -1.11779237092530E-04  -4.27389350545441E-04  -1.80513726196828E-13   0.00000000000000E+00   0.00000000000000E+00
      0.00000000000000E+00   0.00000000000000E+00   3.15611343686934E-04   1.11778006858507E-04   4.27389350545441E-04
      1.80513726196828E-13
      5.00000000000000E-04
     -5.00000000000000E-03  -5.00000000000000E-03   0.00000000000000E+00   0.00000000000000E+00  -3.94149608785526E-04
     -1.39559970928576E-04  -5.33709579714102E-04  -1.80702046094544E-13   0.00000000000000E+00   0.00000000000000E+00
      0.00000000000000E+00   0.00000000000000E+00   3.94151145497265E-04   1.39558434216837E-04   5.33709579714102E-04
      1.80702046094544E-13
      6.00000000000000E-04
     -6.00000000000000E-03  -6.00000000000000E-03   0.00000000000000E+00   0.00000000000000E+00  -4.72543820758669E-04
     -1.67275090998628E-04  -6.39818911757296E-04  -1.80890658717452E-13   0.00000000000000E+00   0.00000000000000E+00
      0.00000000000000E+00   0.00000000000000E+00   4.72545663514565E-04   1.67273248242731E-04   6.39818911757296E-04
      1.80890658717452E-13
      7.00000000000000E-04
     -7.00000000000000E-03  -7.00000000000000E-03   0.00000000000000E+00   0.00000000000000E+00  -5.50792715374613E-04
     -1.94924606492796E-04  -7.45717321867409E-04  -1.81079564442696E-13   0.00000000000000E+00   0.00000000000000E+00
      0.00000000000000E+00   0.00000000000000E+00   5.50794863740484E-04   1.94922458126925E-04   7.45717321867409E-04
      1.81079564442696E-13
      8.00000000000000E-04
     -8.00000000000000E-03  -8.00000000000000E-03   0.00000000000000E+00   0.00000000000000E+00  -6.28896259190468E-04
     -2.22508527053837E-04  -8.51404786244305E-04  -1.81268763645498E-13   0.00000000000000E+00   0.00000000000000E+00
      0.00000000000000E+00   0.00000000000000E+00   6.28898712731506E-04   2.22506073512799E-04   8.51404786244305E-04
      1.81268763645498E-13
      9.00000000000000E-04
     -9.00000000000000E-03  -9.00000000000000E-03   0.00000000000000E+00   0.00000000000000E+00  -7.06854419322256E-04
     -2.50026862756386E-04  -9.56881282078643E-04  -1.81458256699381E-13   0.00000000000000E+00   0.00000000000000E+00
      0.00000000000000E+00   0.00000000000000E+00   7.06857177603031E-04   2.50024104475611E-04   9.56881282078642E-04
      1.81458256699381E-13
      1.00000000000000E-03
     -1.00000000000000E-02  -1.00000000000000E-02   0.00000000000000E+00   0.00000000000000E+00  -7.84667163448696E-04
     -2.77479624092539E-04  -1.06214678754124E-03  -1.81648043976311E-13   0.00000000000000E+00   0.00000000000000E+00
      0.00000000000000E+00   0.00000000000000E+00   7.84670226033157E-04   2.77476561508079E-04   1.06214678754124E-03
      1.81648043976311E-13
      1.10000000000000E-03
     -1.10000000000000E-02  -1.10000000000000E-02   0.00000000000000E+00   0.00000000000000E+00  -8.62334459813701E-04
     -3.04866821962205E-04  -1.16720128177591E-03  -1.81838125846803E-13   0.00000000000000E+00   0.00000000000000E+00
      0.00000000000000E+00   0.00000000000000E+00   8.62337826265174E-04   3.04863455510732E-04   1.16720128177591E-03
      1.81838125846803E-13
      1.20000000000000E-03
     -1.20000000000000E-02  -1.20000000000000E-02   0.00000000000000E+00   0.00000000000000E+00  -9.39856277230644E-04
     -3.32188467665986E-04  -1.27204474489663E-03  -1.82028502679993E-13   0.00000000000000E+00   0.00000000000000E+00
      0.00000000000000E+00   0.00000000000000E+00   9.39859947111837E-04   3.32184797784794E-04   1.27204474489663E-03
      1.82028502679993E-13
      1.30000000000000E-03
     -1.30000000000000E-02  -1.30000000000000E-02   0.00000000000000E+00   0.00000000000000E+00  -1.01723258508604E-03
     -3.59444572899863E-04  -1.37667715798590E-03  -1.82219174843691E-13   0.00000000000000E+00   0.00000000000000E+00
      0.00000000000000E+00   0.00000000000000E+00   1.01723655795904E-03   3.59440600026862E-04   1.37667715798590E-03
      1.82219174843691E-13
      1.40000000000000E-03
     -1.40000000000000E-02  -1.40000000000000E-02   0.00000000000000E+00   0.00000000000000E+00  -1.09446335334174E-03
     -3.86635149751513E-04  -1.48109850309326E-03  -1.82410142704419E-13   0.00000000000000E+00   0.00000000000000E+00
      0.00000000000000E+00   0.00000000000000E+00   1.09446762876803E-03   3.86630874325231E-04   1.48109850309326E-03
      1.82410142704420E-13
      1.50000000000000E-03
     -1.50000000000000E-02  -1.50000000000000E-02   0.00000000000000E+00   0.00000000000000E+00  -1.17154855253879E-03
     -4.13760210697233E-04  -1.58530876323602E-03  -1.82601406627446E-13   0.00000000000000E+00   0.00000000000000E+00
      0.00000000000000E+00   0.00000000000000E+00   1.17155313007921E-03   4.13755633156811E-04   1.58530876323602E-03
      1.82601406627445E-13
      1.60000000000000E-03
     -1.60000000000000E-02  -1.60000000000000E-02   0.00000000000000E+00   0.00000000000000E+00  -1.24848815380001E-03
     -4.40819768599810E-04  -1.68930792239982E-03  -1.82792966976799E-13   0.00000000000000E+00   0.00000000000000E+00
      0.00000000000000E+00   0.00000000000000E+00   1.24849303301482E-03   4.40814889385003E-04   1.68930792239982E-03
      1.82792966976799E-13
      1.70000000000000E-03
     -1.70000000000000E-02  -1.70000000000000E-02   0.00000000000000E+00   0.00000000000000E+00  -1.32528212883420E-03
     -4.67813836706835E-04  -1.79309596554104E-03  -1.82984824115289E-13   0.00000000000000E+00   0.00000000000000E+00
      0.00000000000000E+00   0.00000000000000E+00   1.32528730928303E-03   4.67808656258008E-04   1.79309596554104E-03
      1.82984824115289E-13
      1.80000000000000E-03
     -1.80000000000000E-02  -1.80000000000000E-02   0.00000000000000E+00   0.00000000000000E+00  -1.40193044993738E-03
     -4.94742428649511E-04  -1.89667287858689E-03  -1.83176978404517E-13   0.00000000000000E+00   0.00000000000000E+00
      0.00000000000000E+00   0.00000000000000E+00   1.40193593117925E-03   4.94736947407640E-04   1.89667287858689E-03
      1.83176978404517E-13
      1.90000000000000E-03
     -1.90000000000000E-02  -1.90000000000000E-02   0.00000000000000E+00   0.00000000000000E+00  -1.47843308999788E-03
     -5.21605558441761E-04  -2.00003864843964E-03  -1.83369430204882E-13   0.00000000000000E+00   0.00000000000000E+00
      0.00000000000000E+00   0.00000000000000E+00   1.47843887159121E-03   5.21599776848427E-04   2.00003864843964E-03
      1.83369430204882E-13
      2.00000000000000E-03
     -2.00000000000000E-02  -2.00000000000000E-02   0.00000000000000E+00   0.00000000000000E+00  -1.55479002249754E-03
     -5.48403240479683E-04  -2.10319326297722E-03  -1.83562179875587E-13   0.00000000000000E+00   0.00000000000000E+00
      0.00000000000000E+00   0.00000000000000E+00   1.55479610400015E-03   5.48397158977075E-04   2.10319326297722E-03
      1.83562179875587E-13
      2.10000000000000E-03
     -2.10000000000000E-02  -2.10000000000000E-02   0.00000000000000E+00   0.00000000000000E+00  -1.63100122151533E-03
     -5.75135489541035E-04  -2.20613671105637E-03  -1.83755227774639E-13   0.00000000000000E+00   0.00000000000000E+00
      0.00000000000000E+00   0.00000000000000E+00   1.63100760248443E-03   5.75129108571943E-04   2.20613671105637E-03
      1.83755227774639E-13
      2.20000000000000E-03
     -2.20000000000000E-02  -2.20000000000000E-02   0.00000000000000E+00   0.00000000000000E+00  -1.70706666173124E-03
     -6.01802320785135E-04  -2.30886898251637E-03  -1.83948574258853E-13   0.00000000000000E+00   0.00000000000000E+00
      0.00000000000000E+00   0.00000000000000E+00   1.70707334172342E-03   6.01795640792948E-04   2.30886898251637E-03
      1.83948574258853E-13
      2.30000000000000E-03
     -2.30000000000000E-02  -2.30000000000000E-02   0.00000000000000E+00   0.00000000000000E+00  -1.78298631842736E-03
     -6.28403749752772E-04  -2.41139006818013E-03  -1.84142219683845E-13   0.00000000000000E+00   0.00000000000000E+00
      0.00000000000000E+00   0.00000000000000E+00   1.78299329699865E-03   6.28396771181482E-04   2.41139006818013E-03
      1.84142219683845E-13
      2.40000000000000E-03
     -2.40000000000000E-02  -2.40000000000000E-02   0.00000000000000E+00   0.00000000000000E+00  -1.85876016749278E-03
     -6.54939792366249E-04  -2.51369995985903E-03  -1.84336164404037E-13   0.00000000000000E+00   0.00000000000000E+00
      0.00000000000000E+00   0.00000000000000E+00   1.85876744419858E-03   6.54932515660443E-04   2.51369995985903E-03
      1.84336164404037E-13
      2.50000000000000E-03
     -2.50000000000000E-02  -2.50000000000000E-02   0.00000000000000E+00   0.00000000000000E+00  -1.93438818542447E-03
     -6.81410464929615E-04  -2.61579865035409E-03  -1.84530408772646E-13   0.00000000000000E+00   0.00000000000000E+00
      0.00000000000000E+00   0.00000000000000E+00   1.93439575981962E-03   6.81402890534474E-04   2.61579865035409E-03
      1.84530408772646E-13
      2.60000000000000E-03
     -2.60000000000000E-02  -2.60000000000000E-02   0.00000000000000E+00   0.00000000000000E+00  -2.00987034933283E-03
     -7.07815784128879E-04  -2.71768613346171E-03  -1.84724953141682E-13   0.00000000000000E+00   0.00000000000000E+00
      0.00000000000000E+00   0.00000000000000E+00   2.00987822097153E-03   7.07807912490176E-04   2.71768613346171E-03
      1.84724953141682E-13
      2.70000000000000E-03
     -2.70000000000000E-02  -2.70000000000000E-02   0.00000000000000E+00   0.00000000000000E+00  -2.08520663694180E-03
     -7.34155767032428E-04  -2.81936240397423E-03  -1.84919797861944E-13   0.00000000000000E+00   0.00000000000000E+00
      0.00000000000000E+00   0.00000000000000E+00   2.08521480537770E-03   7.34147598596527E-04   2.81936240397423E-03
      1.84919797861944E-13
      2.80000000000000E-03
     -2.80000000000000E-02  -2.80000000000000E-02   0.00000000000000E+00   0.00000000000000E+00  -2.16039702659363E-03
     -7.60430431091157E-04  -2.92082745768478E-03  -1.85114943283010E-13   0.00000000000000E+00   0.00000000000000E+00
      0.00000000000000E+00   0.00000000000000E+00   2.16040549137978E-03   7.60421966305009E-04   2.92082745768478E-03
      1.85114943283010E-13
      2.90000000000000E-03
     -2.90000000000000E-02  -2.90000000000000E-02   0.00000000000000E+00   0.00000000000000E+00  -2.23544149725162E-03
     -7.86639794139431E-04  -3.02208129139106E-03  -1.85310389753235E-13   0.00000000000000E+00   0.00000000000000E+00
      0.00000000000000E+00   0.00000000000000E+00   2.23545025794048E-03   7.86631033450572E-04   3.02208129139106E-03
      1.85310389753235E-13
      3.00000000000000E-03
     -3.00000000000000E-02  -3.00000000000000E-02   0.00000000000000E+00   0.00000000000000E+00  -2.31034002850186E-03
     -8.12783874395086E-04  -3.12312390289695E-03  -1.85506137619736E-13   0.00000000000000E+00   0.00000000000000E+00
      0.00000000000000E+00   0.00000000000000E+00   2.31034908464531E-03   8.12774818251637E-04   3.12312390289695E-03
      1.85506137619737E-13
      3.10000000000000E-03
     -3.10000000000000E-02  -3.10000000000000E-02   0.00000000000000E+00   0.00000000000000E+00  -2.38509260055693E-03
     -8.38862690460349E-04  -3.22395529101728E-03  -1.85702187228393E-13   0.00000000000000E+00   0.00000000000000E+00
      0.00000000000000E+00   0.00000000000000E+00   2.38510195170627E-03   8.38853339311009E-04   3.22395529101728E-03
      1.85702187228393E-13
      3.20000000000000E-03
     -3.20000000000000E-02  -3.20000000000000E-02   0.00000000000000E+00   0.00000000000000E+00  -2.45969919425986E-03
     -8.64876261322139E-04  -3.32457545558200E-03  -1.85898538923831E-13   0.00000000000000E+00   0.00000000000000E+00
      0.00000000000000E+00   0.00000000000000E+00   2.45970883996581E-03   8.64866615616188E-04   3.32457545558200E-03
      1.85898538923830E-13
      3.30000000000000E-03
     -3.30000000000000E-02  -3.30000000000000E-02   0.00000000000000E+00   0.00000000000000E+00  -2.53415979108524E-03
     -8.90824606352981E-04  -3.42498439743822E-03  -1.86095193049417E-13   0.00000000000000E+00   0.00000000000000E+00
      0.00000000000000E+00   0.00000000000000E+00   2.53416973089795E-03   8.90814666540273E-04   3.42498439743822E-03
      1.86095193049417E-13
      3.40000000000000E-03
     -3.40000000000000E-02  -3.40000000000000E-02   0.00000000000000E+00   0.00000000000000E+00  -2.60847437314225E-03
     -9.16707745311297E-04  -3.52518211845354E-03  -1.86292149947250E-13   0.00000000000000E+00   0.00000000000000E+00
      0.00000000000000E+00   0.00000000000000E+00   2.60848460661129E-03   9.16697511842258E-04   3.52518211845354E-03
      1.86292149947250E-13
      3.50000000000000E-03
     -3.50000000000000E-02  -3.50000000000000E-02   0.00000000000000E+00   0.00000000000000E+00  -2.68264292317941E-03
     -9.42525698342441E-04  -3.62516862152185E-03  -1.86489409958149E-13   0.00000000000000E+00   0.00000000000000E+00
      0.00000000000000E+00   0.00000000000000E+00   2.68265344985378E-03   9.42515171668071E-04   3.62516862152185E-03
      1.86489409958149E-13
      3.60000000000000E-03
     -3.60000000000000E-02  -3.60000000000000E-02   0.00000000000000E+00   0.00000000000000E+00  -2.75666542458577E-03
     -9.68278485979209E-04  -3.72494391056498E-03  -1.86686973421647E-13   0.00000000000000E+00   0.00000000000000E+00
      0.00000000000000E+00   0.00000000000000E+00   2.75667624401391E-03   9.68267666551076E-04   3.72494391056498E-03
      1.86686973421647E-13
      3.70000000000000E-03
     -3.70000000000000E-02  -3.70000000000000E-02   0.00000000000000E+00   0.00000000000000E+00  -2.83054186139370E-03
     -9.93966129142501E-04  -3.82450799053620E-03  -1.86884840675975E-13   0.00000000000000E+00   0.00000000000000E+00
      0.00000000000000E+00   0.00000000000000E+00   2.83055297312347E-03   9.93955017412736E-04   3.82450799053620E-03
      1.86884840675975E-13
      3.80000000000000E-03
     -3.80000000000000E-02  -3.80000000000000E-02   0.00000000000000E+00   0.00000000000000E+00  -2.90427221828310E-03
     -1.01958864914218E-03  -3.92386086742528E-03  -1.87083012058056E-13   0.00000000000000E+00   0.00000000000000E+00
      0.00000000000000E+00   0.00000000000000E+00   2.90428362186180E-03   1.01957724556348E-03   3.92386086742528E-03
      1.87083012058056E-13
      3.90000000000000E-03
     -3.90000000000000E-02  -3.90000000000000E-02   0.00000000000000E+00   0.00000000000000E+00  -2.97785648058294E-03
     -1.04514606767769E-03  -4.02300254826063E-03  -1.87281487903494E-13   0.00000000000000E+00   0.00000000000000E+00
      0.00000000000000E+00   0.00000000000000E+00   2.97786817555732E-03   1.04513437270331E-03   4.02300254826063E-03
      1.87281487903494E-13
      4.00000000000000E-03
     -4.00000000000000E-02  -4.00000000000000E-02   0.00000000000000E+00   0.00000000000000E+00  -3.05129463427571E-03
     -1.07063840683900E-03  -4.12193304111471E-03  -1.87480268546561E-13   0.00000000000000E+00   0.00000000000000E+00
      0.00000000000000E+00   0.00000000000000E+00   3.05130662019195E-03   1.07062642092276E-03   4.12193304111471E-03
      1.87480268546561E-13
      4.10000000000000E-03
     -4.10000000000000E-02  -4.10000000000000E-02   0.00000000000000E+00   0.00000000000000E+00  -3.12458666599835E-03
     -1.09606568910706E-03  -4.22065235510541E-03  -1.87679354320187E-13   0.00000000000000E+00   0.00000000000000E+00
      0.00000000000000E+00   0.00000000000000E+00   3.12459894240208E-03   1.09605341270333E-03   4.22065235510541E-03
      1.87679354320187E-13
      4.20000000000000E-03
     -4.20000000000000E-02  -4.20000000000000E-02   0.00000000000000E+00   0.00000000000000E+00  -3.19773256304671E-03
     -1.12142793735494E-03  -4.31916050040165E-03  -1.87878745555949E-13   0.00000000000000E+00   0.00000000000000E+00
      0.00000000000000E+00   0.00000000000000E+00   3.19774512948301E-03   1.12141537091864E-03   4.31916050040165E-03
      1.87878745555949E-13
      4.30000000000000E-03
     -4.30000000000000E-02  -4.30000000000000E-02   0.00000000000000E+00   0.00000000000000E+00  -3.27073231337780E-03
     -1.14672517484830E-03  -4.41745748822611E-03  -1.88078442584060E-13   0.00000000000000E+00   0.00000000000000E+00
      0.00000000000000E+00   0.00000000000000E+00   3.27074516939119E-03   1.14671231883492E-03   4.41745748822611E-03
      1.88078442584060E-13
      4.40000000000000E-03
     -4.40000000000000E-02  -4.40000000000000E-02   0.00000000000000E+00   0.00000000000000E+00  -3.34358590561293E-03
     -1.17195742524643E-03  -4.51554333085936E-03  -1.88278445733356E-13   0.00000000000000E+00   0.00000000000000E+00
      0.00000000000000E+00   0.00000000000000E+00   3.34359905074738E-03   1.17194428011198E-03   4.51554333085936E-03
      1.88278445733356E-13
      4.50000000000000E-03
     -4.50000000000000E-02  -4.50000000000000E-02   0.00000000000000E+00   0.00000000000000E+00  -3.41629332904078E-03
     -1.19712471260286E-03  -4.61341804164364E-03  -1.88478755331286E-13   0.00000000000000E+00   0.00000000000000E+00
      0.00000000000000E+00   0.00000000000000E+00   3.41630676283974E-03   1.19711127880390E-03   4.61341804164364E-03
      1.88478755331286E-13
      4.60000000000000E-03
     -4.60000000000000E-02  -4.60000000000000E-02   0.00000000000000E+00   0.00000000000000E+00  -3.48885457361918E-03
     -1.22222706136621E-03  -4.71108163498538E-03  -1.88679371703898E-13   0.00000000000000E+00   0.00000000000000E+00
      0.00000000000000E+00   0.00000000000000E+00   3.48886829562552E-03   1.22221333935986E-03   4.71108163498538E-03
      1.88679371703898E-13
      4.70000000000000E-03
     -4.70000000000000E-02  -4.70000000000000E-02   0.00000000000000E+00   0.00000000000000E+00  -3.56126962997933E-03
     -1.24726449638104E-03  -4.80853412636037E-03  -1.88880295175830E-13   0.00000000000000E+00   0.00000000000000E+00
      0.00000000000000E+00   0.00000000000000E+00   3.56128363973541E-03   1.24725048662495E-03   4.80853412636037E-03
      1.88880295175830E-13
      4.80000000000000E-03
     -4.80000000000000E-02  -4.80000000000000E-02   0.00000000000000E+00   0.00000000000000E+00  -3.63353848942851E-03
     -1.27223704288871E-03  -4.90577553231722E-03  -1.89081526070295E-13   0.00000000000000E+00   0.00000000000000E+00
      0.00000000000000E+00   0.00000000000000E+00   3.63355278647614E-03   1.27222274584108E-03   4.90577553231722E-03
      1.89081526070295E-13
      4.90000000000000E-03
     -4.90000000000000E-02  -4.90000000000000E-02   0.00000000000000E+00   0.00000000000000E+00  -3.70566114395230E-03
     -1.29714472652797E-03  -5.00280587048027E-03  -1.89283064709072E-13   0.00000000000000E+00   0.00000000000000E+00
      0.00000000000000E+00   0.00000000000000E+00   3.70567572783277E-03   1.29713014264750E-03   5.00280587048027E-03
      1.89283064709072E-13
      5.00000000000000E-03
     -5.00000000000000E-02  -5.00000000000000E-02   0.00000000000000E+00   0.00000000000000E+00  -3.77763758621753E-03
     -1.32198757333604E-03  -5.09962515955357E-03  -1.89484911412490E-13   0.00000000000000E+00   0.00000000000000E+00
      0.00000000000000E+00   0.00000000000000E+00   3.77765245647157E-03   1.32197270308199E-03   5.09962515955357E-03
      1.89484911412490E-13
      5.10000000000000E-03
     -5.10000000000000E-02  -5.10000000000000E-02   0.00000000000000E+00   0.00000000000000E+00  -3.84946780957610E-03
     -1.34676560974923E-03  -5.19623341932532E-03  -1.89687066499418E-13   0.00000000000000E+00   0.00000000000000E+00
      0.00000000000000E+00   0.00000000000000E+00   3.84948296574394E-03   1.34675045358138E-03   5.19623341932532E-03
      1.89687066499418E-13
      5.20000000000000E-03
     -5.20000000000000E-02  -5.20000000000000E-02   0.00000000000000E+00   0.00000000000000E+00  -3.92115180806761E-03
     -1.37147886260388E-03  -5.29263067067148E-03  -1.89889530287253E-13   0.00000000000000E+00   0.00000000000000E+00
      0.00000000000000E+00   0.00000000000000E+00   3.92116724968894E-03   1.37146342098255E-03   5.29263067067148E-03
      1.89889530287253E-13
      5.30000000000000E-03
     -5.30000000000000E-02  -5.30000000000000E-02   0.00000000000000E+00   0.00000000000000E+00  -3.99268957642044E-03
     -1.39612735913705E-03  -5.38881693555750E-03  -1.90092303091908E-13   0.00000000000000E+00   0.00000000000000E+00
      0.00000000000000E+00   0.00000000000000E+00   3.99270530303442E-03   1.39611163252307E-03   5.38881693555749E-03
      1.90092303091908E-13
      5.40000000000000E-03
     -5.40000000000000E-02  -5.40000000000000E-02   0.00000000000000E+00   0.00000000000000E+00  -4.06408111005800E-03
     -1.42071112698747E-03  -5.48479223704547E-03  -1.90295385227795E-13   0.00000000000000E+00   0.00000000000000E+00
      0.00000000000000E+00   0.00000000000000E+00   4.06409712120329E-03   1.42069511584218E-03   5.48479223704547E-03
      1.90295385227795E-13
      5.50000000000000E-03
     -5.50000000000000E-02  -5.50000000000000E-02   0.00000000000000E+00   0.00000000000000E+00  -4.13532640509836E-03
     -1.44523019419620E-03  -5.58055659929457E-03  -1.90498777007818E-13   0.00000000000000E+00   0.00000000000000E+00
      0.00000000000000E+00   0.00000000000000E+00   4.13534270031309E-03   1.44521389898147E-03   5.58055659929457E-03
      1.90498777007818E-13
      5.60000000000000E-03
     -5.60000000000000E-02  -5.60000000000000E-02   0.00000000000000E+00   0.00000000000000E+00  -4.20642545835887E-03
     -1.46968458920760E-03  -5.67611004756647E-03  -1.90702478743357E-13   0.00000000000000E+00   0.00000000000000E+00
      0.00000000000000E+00   0.00000000000000E+00   4.20644203718065E-03   1.46966801038582E-03   5.67611004756647E-03
      1.90702478743357E-13
      5.70000000000000E-03
     -5.70000000000000E-02  -5.70000000000000E-02   0.00000000000000E+00   0.00000000000000E+00  -4.27737826735909E-03
     -1.49407434087011E-03  -5.77145260822920E-03  -1.90906490744258E-13   0.00000000000000E+00   0.00000000000000E+00
      0.00000000000000E+00   0.00000000000000E+00   4.27739512932504E-03   1.49405747890417E-03   5.77145260822920E-03
      1.90906490744258E-13
      5.80000000000000E-03
     -5.80000000000000E-02  -5.80000000000000E-02   0.00000000000000E+00   0.00000000000000E+00  -4.34818483032326E-03
     -1.51839947843684E-03  -5.86658430876010E-03  -1.91110813318814E-13   0.00000000000000E+00   0.00000000000000E+00
      0.00000000000000E+00   0.00000000000000E+00   4.34820197496995E-03   1.51838233379015E-03   5.86658430876010E-03
      1.91110813318814E-13
      5.90000000000000E-03
     -5.90000000000000E-02  -5.90000000000000E-02   0.00000000000000E+00   0.00000000000000E+00  -4.41884514618285E-03
     -1.54266003156672E-03  -5.96150517774957E-03  -1.91315446773761E-13   0.00000000000000E+00   0.00000000000000E+00
      0.00000000000000E+00   0.00000000000000E+00   4.41886257304639E-03   1.54264260470318E-03   5.96150517774957E-03
      1.91315446773761E-13
      6.00000000000000E-03
     -6.00000000000000E-02  -6.00000000000000E-02   0.00000000000000E+00   0.00000000000000E+00  -4.48935921457992E-03
     -1.56685603032501E-03  -6.05621524490492E-03  -1.91520391414258E-13   0.00000000000000E+00   0.00000000000000E+00
      0.00000000000000E+00   0.00000000000000E+00   4.48937692319589E-03   1.56683832170904E-03   6.05621524490492E-03
      1.91520391414258E-13
      6.10000000000000E-03
     -6.10000000000000E-02  -6.10000000000000E-02   0.00000000000000E+00   0.00000000000000E+00  -4.55972703587068E-03
     -1.59098750518435E-03  -6.15071454105503E-03  -1.91725647543878E-13   0.00000000000000E+00   0.00000000000000E+00
      0.00000000000000E+00   0.00000000000000E+00   4.55974502577417E-03   1.59096951528086E-03   6.15071454105503E-03
      1.91725647543878E-13
      6.20000000000000E-03
     -6.20000000000000E-02  -6.20000000000000E-02   0.00000000000000E+00   0.00000000000000E+00  -4.62994861112635E-03
     -1.61505448702525E-03  -6.24500309815160E-03  -1.91931215464592E-13   0.00000000000000E+00   0.00000000000000E+00
      0.00000000000000E+00   0.00000000000000E+00   4.62996688185195E-03   1.61503621629966E-03   6.24500309815160E-03
      1.91931215464592E-13
      6.30000000000000E-03
     -6.30000000000000E-02  -6.30000000000000E-02   0.00000000000000E+00   0.00000000000000E+00  -4.70002394213874E-03
     -1.63905700713718E-03  -6.33908094927593E-03  -1.92137095476759E-13   0.00000000000000E+00   0.00000000000000E+00
      0.00000000000000E+00   0.00000000000000E+00   4.70004249322055E-03   1.63903845605538E-03   6.33908094927593E-03
      1.92137095476759E-13
      6.40000000000000E-03
     -6.40000000000000E-02  -6.40000000000000E-02   0.00000000000000E+00   0.00000000000000E+00  -4.76995303142013E-03
     -1.66299509721925E-03  -6.43294812863938E-03  -1.92343287879110E-13   0.00000000000000E+00   0.00000000000000E+00
      0.00000000000000E+00   0.00000000000000E+00   4.76997186239174E-03   1.66297626624764E-03   6.43294812863938E-03
      1.92343287879110E-13
      6.50000000000000E-03
     -6.50000000000000E-02  -6.50000000000000E-02   0.00000000000000E+00   0.00000000000000E+00  -4.83973588220939E-03
     -1.68686878938089E-03  -6.52660467159028E-03  -1.92549792968737E-13   0.00000000000000E+00   0.00000000000000E+00
      0.00000000000000E+00   0.00000000000000E+00   4.83975499260393E-03   1.68684967898635E-03   6.52660467159029E-03
      1.92549792968737E-13
      6.60000000000000E-03
     -6.60000000000000E-02  -6.60000000000000E-02   0.00000000000000E+00   0.00000000000000E+00  -4.90937249847152E-03
     -1.71067811614274E-03  -6.62005061461427E-03  -1.92756611041079E-13   0.00000000000000E+00   0.00000000000000E+00
      0.00000000000000E+00   0.00000000000000E+00   4.90939188782162E-03   1.71065872679265E-03   6.62005061461427E-03
      1.92756611041079E-13
      6.70000000000000E-03
     -6.70000000000000E-02  -6.70000000000000E-02   0.00000000000000E+00   0.00000000000000E+00  -4.97886288490381E-03
     -1.73442311043742E-03  -6.71328599534123E-03  -1.92963742389908E-13   0.00000000000000E+00   0.00000000000000E+00
      0.00000000000000E+00   0.00000000000000E+00   4.97888255274161E-03   1.73440344259962E-03   6.71328599534124E-03
      1.92963742389908E-13
      6.80000000000000E-03
     -6.80000000000000E-02  -6.80000000000000E-02   0.00000000000000E+00   0.00000000000000E+00  -5.04820704693599E-03
     -1.75810380561026E-03  -6.80631085254625E-03  -1.93171187307319E-13   0.00000000000000E+00   0.00000000000000E+00
      0.00000000000000E+00   0.00000000000000E+00   5.04822699279317E-03   1.75808385975308E-03   6.80631085254625E-03
      1.93171187307320E-13
      6.90000000000001E-03
     -6.90000000000000E-02  -6.90000000000000E-02   0.00000000000000E+00   0.00000000000000E+00  -5.11740499073467E-03
     -1.78172023542010E-03  -6.89912522615478E-03  -1.93378946083713E-13   0.00000000000000E+00   0.00000000000000E+00
      0.00000000000000E+00   0.00000000000000E+00   5.11742521414243E-03   1.78170001201235E-03   6.89912522615478E-03
      1.93378946083713E-13
      7.00000000000001E-03
     -7.00000000000000E-02  -7.00000000000000E-02   0.00000000000000E+00   0.00000000000000E+00  -5.18645672320553E-03
     -1.80527243403995E-03  -6.99172915724548E-03  -1.93587019007783E-13   0.00000000000000E+00   0.00000000000000E+00
      0.00000000000000E+00   0.00000000000000E+00   5.18647722369458E-03   1.80525193355090E-03   6.99172915724548E-03
      1.93587019007783E-13