DF-ISE text

Info {
  version   = 1.0
  type      = xyplot
  datasets  = [
    "time"
    "electrode_2 OuterVoltage" "electrode_2 InnerVoltage" "electrode_2 QuasiFermiPotential" "electrode_2 DisplacementCurrent" "electrode_2 eCurrent"
    "electrode_2 hCurrent" "electrode_2 TotalCurrent" "electrode_2 Charge" "electrode_1 OuterVoltage" "electrode_1 InnerVoltage"
    "electrode_1 QuasiFermiPotential" "electrode_1 DisplacementCurrent" "electrode_1 eCurrent" "electrode_1 hCurrent" "electrode_1 TotalCurrent"
    "electrode_1 Charge" ]
  functions = [
    Time
    OuterVoltage InnerVoltage QuasiFermiPotential DisplacementCurrent eCurrent
    hCurrent TotalCurrent Charge OuterVoltage InnerVoltage
    QuasiFermiPotential DisplacementCurrent eCurrent hCurrent TotalCurrent
    Charge ]
}

Data {
      0.00000000000000E+00
      0.00000000000000E+00   0.00000000000000E+00   0.00000000000000E+00   0.00000000000000E+00   6.99064767608986E-17
     -6.15058606011097E-20   6.98449709002975E-17  -4.11012866765879E-13   0.00000000000000E+00   0.00000000000000E+00
      0.00000000000000E+00   0.00000000000000E+00  -6.99064822710580E-17   6.15113707604163E-20  -6.98449709002975E-17
      4.11012866765879E-13
      4.00000000000000E-02
     -4.00000000000000E-01  -4.00000000000000E-01   0.00000000000000E+00   0.00000000000000E+00  -6.63671148103893E-05
     -1.60279433518508E-06  -6.79699091455744E-05  -6.73254957216822E-13   0.00000000000000E+00   0.00000000000000E+00
      0.00000000000000E+00   0.00000000000000E+00   6.63676371196643E-05   1.60227202591006E-06   6.79699091455744E-05
      6.73254957216822E-13
      8.37333333333333E-02
     -8.37333333333333E-01  -8.37333333333333E-01   0.00000000000000E+00   0.00000000000000E+00  -6.72389507171952E-05
     -1.60933948640984E-06  -6.88482902036051E-05  -9.28481206316294E-13   0.00000000000000E+00   0.00000000000000E+00
      0.00000000000000E+00   0.00000000000000E+00   6.72394910060259E-05   1.60879919757922E-06   6.88482902036051E-05
      9.28481206316294E-13
      1.31665066666667E-01
     -1.31665066666667E+00  -1.31665066666667E+00   0.00000000000000E+00   0.00000000000000E+00  -6.81713006670192E-05
     -1.61336601491263E-06  -6.97846666819318E-05  -1.14434076986480E-12   0.00000000000000E+00   0.00000000000000E+00
      0.00000000000000E+00   0.00000000000000E+00   6.81718586367234E-05   1.61280804520840E-06   6.97846666819318E-05
      1.14434076986480E-12
      1.84198246400000E-01
     -1.84198246400000E+00  -1.84198246400000E+00   0.00000000000000E+00   0.00000000000000E+00  -6.87669739830956E-05
     -1.61521835730189E-06  -7.03821923403975E-05  -1.31695409974025E-12   0.00000000000000E+00   0.00000000000000E+00
      0.00000000000000E+00   0.00000000000000E+00   6.87675414164384E-05   1.61465092395902E-06   7.03821923403974E-05
      1.31695409974025E-12
      2.41774611387733E-01
     -2.41774611387733E+00  -2.41774611387733E+00   0.00000000000000E+00   0.00000000000000E+00  -6.92511535568493E-05
     -1.61676326054647E-06  -7.08679168173958E-05  -1.50070674730330E-12   0.00000000000000E+00   0.00000000000000E+00
      0.00000000000000E+00   0.00000000000000E+00   6.92517309917857E-05   1.61618582561003E-06   7.08679168173958E-05
      1.50070674730330E-12
      3.04955075900940E-01
     -3.04955075900939E+00  -3.04955075900939E+00   0.00000000000000E+00   0.00000000000000E+00  -6.98111410872805E-05
     -1.61808331044967E-06  -7.14292243977301E-05  -1.69754471954617E-12   0.00000000000000E+00   0.00000000000000E+00
      0.00000000000000E+00   0.00000000000000E+00   6.98117318249634E-05   1.61749257276671E-06   7.14292243977301E-05
      1.69754471954617E-12
      3.74285105626764E-01
     -3.74285105626764E+00  -3.74285105626764E+00   0.00000000000000E+00   0.00000000000000E+00  -7.05786120920377E-05
     -1.61917739803126E-06  -7.21977894900689E-05  -1.89514067774282E-12   0.00000000000000E+00   0.00000000000000E+00
      0.00000000000000E+00   0.00000000000000E+00   7.05792200708057E-05   1.61856941926321E-06   7.21977894900689E-05
      1.89514067774282E-12
      4.50270818206268E-01
     -4.50270818206268E+00  -4.50270818206268E+00   0.00000000000000E+00   0.00000000000000E+00  -7.13612963420740E-05
     -1.62000383887143E-06  -7.29813001809454E-05  -2.06941337119947E-12   0.00000000000000E+00   0.00000000000000E+00
      0.00000000000000E+00   0.00000000000000E+00   7.13619206722729E-05   1.61937950867250E-06   7.29813001809454E-05
      2.06941337119947E-12
      5.33551159193405E-01
     -5.33551159193405E+00  -5.33551159193405E+00   0.00000000000000E+00   0.00000000000000E+00  -7.19727305344616E-05
     -1.62077805151420E-06  -7.35935085859758E-05  -2.25112701295568E-12   0.00000000000000E+00   0.00000000000000E+00
      0.00000000000000E+00   0.00000000000000E+00   7.19733888572266E-05   1.62011972874915E-06   7.35935085859758E-05
      2.25112701295569E-12
      6.24937453369956E-01
     -6.24937453369956E+00  -6.24937453369956E+00   0.00000000000000E+00   0.00000000000000E+00  -7.26148191732629E-05
     -1.62160720064981E-06  -7.42364263739127E-05  -2.44971443651290E-12   0.00000000000000E+00   0.00000000000000E+00
      0.00000000000000E+00   0.00000000000000E+00   7.26155910770698E-05   1.62083529684290E-06   7.42364263739127E-05
      2.44971443651290E-12
      7.24937453369956E-01
     -7.24937453369956E+00  -7.24937453369956E+00   0.00000000000000E+00   0.00000000000000E+00  -7.33867467449953E-05
     -1.62269348083049E-06  -7.50094402258258E-05  -2.66547917891983E-12   0.00000000000000E+00   0.00000000000000E+00
      0.00000000000000E+00   0.00000000000000E+00   7.33879117877569E-05   1.62152843806890E-06   7.50094402258258E-05
      2.66547917891983E-12
      8.24937453369956E-01
     -8.24937453369956E+00  -8.24937453369956E+00   0.00000000000000E+00   0.00000000000000E+00  -7.43351631514902E-05
     -1.62440865525840E-06  -7.59595718067486E-05  -2.87731899669789E-12   0.00000000000000E+00   0.00000000000000E+00
      0.00000000000000E+00   0.00000000000000E+00   7.43374287343476E-05   1.62214307240109E-06   7.59595718067487E-05
      2.87731899669789E-12
      9.24937453369956E-01
     -9.24937453369956E+00  -9.24937453369956E+00   0.00000000000000E+00   0.00000000000000E+00  -7.57489639622804E-05
     -1.62731089126424E-06  -7.73762748535447E-05  -3.06935758793716E-12   0.00000000000000E+00   0.00000000000000E+00
      0.00000000000000E+00   0.00000000000000E+00   7.57536182650778E-05   1.62265658846691E-06   7.73762748535447E-05
      3.06935758793716E-12
      1.00000000000000E+00
     -1.00000000000000E+01  -1.00000000000000E+01   0.00000000000000E+00   0.00000000000000E+00  -7.66645526424739E-05
     -1.62985819070802E-06  -7.82944108331819E-05  -3.17361731700480E-12   0.00000000000000E+00   0.00000000000000E+00
      0.00000000000000E+00   0.00000000000000E+00   7.66714902899754E-05   1.62292054320655E-06   7.82944108331819E-05
      3.17361731700480E-12
      0.00000000000000E+00
     -1.00000000000000E+01  -1.00000000000000E+01   0.00000000000000E+00   0.00000000000000E+00  -7.66645526424739E-05
     -1.62985819070802E-06  -7.82944108331819E-05  -3.17361731700480E-12   0.00000000000000E+00   0.00000000000000E+00
      0.00000000000000E+00   0.00000000000000E+00   7.66714902899754E-05   1.62292054320655E-06   7.82944108331819E-05
      3.17361731700480E-12
}
