DF-ISE text

Info {
  version   = 1.0
  type      = xyplot
  datasets  = [
    "time"
    "electrode_2 OuterVoltage" "electrode_2 InnerVoltage" "electrode_2 QuasiFermiPotential" "electrode_2 DisplacementCurrent" "electrode_2 eCurrent"
    "electrode_2 hCurrent" "electrode_2 TotalCurrent" "electrode_2 Charge" "electrode_1 OuterVoltage" "electrode_1 InnerVoltage"
    "electrode_1 QuasiFermiPotential" "electrode_1 DisplacementCurrent" "electrode_1 eCurrent" "electrode_1 hCurrent" "electrode_1 TotalCurrent"
    "electrode_1 Charge" ]
  functions = [
    Time
    OuterVoltage InnerVoltage QuasiFermiPotential DisplacementCurrent eCurrent
    hCurrent TotalCurrent Charge OuterVoltage InnerVoltage
    QuasiFermiPotential DisplacementCurrent eCurrent hCurrent TotalCurrent
    Charge ]
}

Data {
      0.00000000000000E+00
      0.00000000000000E+00   0.00000000000000E+00   0.00000000000000E+00   0.00000000000000E+00   6.99064767608986E-17
     -6.15058606011097E-20   6.98449709002975E-17  -4.11012866765879E-13   0.00000000000000E+00   0.00000000000000E+00
      0.00000000000000E+00   0.00000000000000E+00  -6.99064822710580E-17   6.15113707604163E-20  -6.98449709002975E-17
      4.11012866765879E-13
      1.00000000000000E-04
     -9.00000000000000E-03  -9.00000000000000E-03   0.00000000000000E+00   0.00000000000000E+00  -9.67664222836906E-06
     -2.52625487515827E-07  -9.92926771588489E-06  -4.17121744861671E-13   0.00000000000000E+00   0.00000000000000E+00
      0.00000000000000E+00   0.00000000000000E+00   9.67671181835833E-06   2.52555897526555E-07   9.92926771588489E-06
      4.17121744861671E-13
      2.00000000000000E-04
     -1.80000000000000E-02  -1.80000000000000E-02   0.00000000000000E+00   0.00000000000000E+00  -1.80061403862016E-05
     -4.65583767425062E-07  -1.84717241536266E-05  -4.23240703523005E-13   0.00000000000000E+00   0.00000000000000E+00
      0.00000000000000E+00   0.00000000000000E+00   1.80062709033748E-05   4.65453250251784E-07   1.84717241536266E-05
      4.23240703523005E-13
      3.00000000000000E-04
     -2.70000000000000E-02  -2.70000000000000E-02   0.00000000000000E+00   0.00000000000000E+00  -2.51586543210812E-05
     -6.45035405826780E-07  -2.58036897269080E-05  -4.29368499240818E-13   0.00000000000000E+00   0.00000000000000E+00
      0.00000000000000E+00   0.00000000000000E+00   2.51588380012098E-05   6.44851725698171E-07   2.58036897269080E-05
      4.29368499240818E-13
      4.00000000000000E-04
     -3.60000000000000E-02  -3.60000000000000E-02   0.00000000000000E+00   0.00000000000000E+00  -3.12867622771868E-05
     -7.96203691897457E-07  -3.20829659690843E-05  -4.35503761717951E-13   0.00000000000000E+00   0.00000000000000E+00
      0.00000000000000E+00   0.00000000000000E+00   3.12869921998619E-05   7.95973769222372E-07   3.20829659690843E-05
      4.35503761717951E-13
      5.00000000000000E-04
     -4.50000000000000E-02  -4.50000000000000E-02   0.00000000000000E+00   0.00000000000000E+00  -3.65264912322577E-05
     -9.23511410219922E-07  -3.74500026424776E-05  -4.41644979167028E-13   0.00000000000000E+00   0.00000000000000E+00
      0.00000000000000E+00   0.00000000000000E+00   3.65267612624567E-05   9.23241380020924E-07   3.74500026424776E-05
      4.41644979167028E-13
      6.00000000000000E-04
     -5.40000000000000E-02  -5.40000000000000E-02   0.00000000000000E+00   0.00000000000000E+00  -4.09984282705654E-05
     -1.03069989825175E-06  -4.20291281688171E-05  -4.47790494176896E-13   0.00000000000000E+00   0.00000000000000E+00
      0.00000000000000E+00   0.00000000000000E+00   4.09987329976417E-05   1.03039517117537E-06   4.20291281688171E-05
      4.47790494176896E-13
      7.00000000000000E-04
     -6.30000000000000E-02  -6.30000000000000E-02   0.00000000000000E+00   0.00000000000000E+00  -4.48088908339656E-05
     -1.12093146971811E-06  -4.59298223036837E-05  -4.53938509971711E-13   0.00000000000000E+00   0.00000000000000E+00
      0.00000000000000E+00   0.00000000000000E+00   4.48092255093739E-05   1.12059679430982E-06   4.59298223036837E-05
      4.53938509971711E-13
      8.00000000000000E-04
     -7.20000000000000E-02  -7.20000000000000E-02   0.00000000000000E+00   0.00000000000000E+00  -4.80511299210319E-05
     -1.19687715164066E-06  -4.92480070726725E-05  -4.60087106003543E-13   0.00000000000000E+00   0.00000000000000E+00
      0.00000000000000E+00   0.00000000000000E+00   4.80514903961481E-05   1.19651667652444E-06   4.92480070726725E-05
      4.60087106003543E-13
      9.00000000000000E-04
     -8.10000000000000E-02  -8.10000000000000E-02   0.00000000000000E+00   0.00000000000000E+00  -5.08065390889387E-05
     -1.26079162634251E-06  -5.20673307152812E-05  -4.66234261330078E-13   0.00000000000000E+00   0.00000000000000E+00
      0.00000000000000E+00   0.00000000000000E+00   5.08069217542495E-05   1.26040896103170E-06   5.20673307152812E-05
      4.66234261330078E-13
      1.00000000000000E-03
     -9.00000000000000E-02  -9.00000000000000E-02   0.00000000000000E+00   0.00000000000000E+00  -5.31458434321969E-05
     -1.31457709647695E-06  -5.44604205286738E-05  -4.72377883922110E-13   0.00000000000000E+00   0.00000000000000E+00
      0.00000000000000E+00   0.00000000000000E+00   5.31462451589482E-05   1.31417536972567E-06   5.44604205286738E-05
      4.72377883922110E-13
      1.10000000000000E-03
     -9.90000000000000E-02  -9.90000000000000E-02   0.00000000000000E+00   0.00000000000000E+00  -5.51302459813944E-05
     -1.35983760321608E-06  -5.64900835846104E-05  -4.78515844003174E-13   0.00000000000000E+00   0.00000000000000E+00
      0.00000000000000E+00   0.00000000000000E+00   5.51306640665539E-05   1.35941951805647E-06   5.64900835846104E-05
      4.78515844003174E-13
      1.20000000000000E-03
     -1.08000000000000E-01  -1.08000000000000E-01   0.00000000000000E+00   0.00000000000000E+00  -5.68125134416843E-05
     -1.39792514617918E-06  -5.82104385878635E-05  -4.84646009521179E-13   0.00000000000000E+00   0.00000000000000E+00
      0.00000000000000E+00   0.00000000000000E+00   5.68129455568207E-05   1.39749303104283E-06   5.82104385878635E-05
      4.84646009521179E-13
      1.30000000000000E-03
     -1.17000000000000E-01  -1.17000000000000E-01   0.00000000000000E+00   0.00000000000000E+00  -5.82379881483840E-05
     -1.42997878857990E-06  -5.96679669369639E-05  -4.90766282023258E-13   0.00000000000000E+00   0.00000000000000E+00
      0.00000000000000E+00   0.00000000000000E+00   5.82384322928211E-05   1.42953464414278E-06   5.96679669369639E-05
      4.90766282023259E-13
      1.40000000000000E-03
     -1.26000000000000E-01  -1.26000000000000E-01   0.00000000000000E+00   0.00000000000000E+00  -5.94455179664747E-05
     -1.45695778094932E-06  -6.09024757474240E-05  -4.96874631399462E-13   0.00000000000000E+00   0.00000000000000E+00
      0.00000000000000E+00   0.00000000000000E+00   5.94459724248733E-05   1.45650332255075E-06   6.09024757474240E-05
      4.96874631399463E-13
      1.50000000000000E-03
     -1.35000000000000E-01  -1.35000000000000E-01   0.00000000000000E+00   0.00000000000000E+00  -6.04683001961767E-05
     -1.47966960097968E-06  -6.19479697971564E-05  -5.02969128198797E-13   0.00000000000000E+00   0.00000000000000E+00
      0.00000000000000E+00   0.00000000000000E+00   6.04687635005189E-05   1.47920629663743E-06   6.19479697971564E-05
      5.02969128198797E-13
      1.60000000000000E-03
     -1.44000000000000E-01  -1.44000000000000E-01   0.00000000000000E+00   0.00000000000000E+00  -6.13346391390438E-05
     -1.49879368334812E-06  -6.28334328223919E-05  -5.09047972472471E-13   0.00000000000000E+00   0.00000000000000E+00
      0.00000000000000E+00   0.00000000000000E+00   6.13351100348697E-05   1.49832278752217E-06   6.28334328223919E-05
      5.09047972472471E-13
      1.70000000000000E-03
     -1.53000000000000E-01  -1.53000000000000E-01   0.00000000000000E+00   0.00000000000000E+00  -6.20686197534201E-05
     -1.51490150075309E-06  -6.35835212541732E-05  -5.15109518353410E-13   0.00000000000000E+00   0.00000000000000E+00
      0.00000000000000E+00   0.00000000000000E+00   6.20690971700717E-05   1.51442408410152E-06   6.35835212541733E-05
      5.15109518353410E-13
      1.80000000000000E-03
     -1.62000000000000E-01  -1.62000000000000E-01   0.00000000000000E+00   0.00000000000000E+00  -6.26907018116567E-05
     -1.52847355599505E-06  -6.42191753676517E-05  -5.21152293830154E-13   0.00000000000000E+00   0.00000000000000E+00
      0.00000000000000E+00   0.00000000000000E+00   6.26911848362282E-05   1.52799053142358E-06   6.42191753676517E-05
      5.21152293830154E-13
      1.90000000000000E-03
     -1.71000000000000E-01  -1.71000000000000E-01   0.00000000000000E+00   0.00000000000000E+00  -6.32182402584624E-05
     -1.53991375579018E-06  -6.47581540142526E-05  -5.27175015411098E-13   0.00000000000000E+00   0.00000000000000E+00
      0.00000000000000E+00   0.00000000000000E+00   6.32187281131259E-05   1.53942590112669E-06   6.47581540142526E-05
      5.27175015411098E-13
      2.00000000000000E-03
     -1.80000000000000E-01  -1.80000000000000E-01   0.00000000000000E+00   0.00000000000000E+00  -6.36659381819837E-05
     -1.54956156109808E-06  -6.52154997430818E-05  -5.33176597596188E-13   0.00000000000000E+00   0.00000000000000E+00
      0.00000000000000E+00   0.00000000000000E+00   6.36664302043485E-05   1.54906953873328E-06   6.52154997430817E-05
      5.33176597596188E-13
      2.10000000000000E-03
     -1.89000000000000E-01  -1.89000000000000E-01   0.00000000000000E+00   0.00000000000000E+00  -6.40462390765226E-05
     -1.55770224614612E-06  -6.56039413226688E-05  -5.39156157272515E-13   0.00000000000000E+00   0.00000000000000E+00
      0.00000000000000E+00   0.00000000000000E+00   6.40467347026931E-05   1.55720661997564E-06   6.56039413226688E-05
      5.39156157272515E-13
      2.20000000000000E-03
     -1.98000000000000E-01  -1.98000000000000E-01   0.00000000000000E+00   0.00000000000000E+00  -6.43696650160137E-05
     -1.56457554784479E-06  -6.59342405638585E-05  -5.45113013323118E-13   0.00000000000000E+00   0.00000000000000E+00
      0.00000000000000E+00   0.00000000000000E+00   6.43701637660265E-05   1.56407679783200E-06   6.59342405638585E-05
      5.45113013323118E-13
      2.30000000000000E-03
     -2.07000000000000E-01  -2.07000000000000E-01   0.00000000000000E+00   0.00000000000000E+00  -6.46451070745028E-05
     -1.57038294670697E-06  -6.62154900212098E-05  -5.51046681880743E-13   0.00000000000000E+00   0.00000000000000E+00
      0.00000000000000E+00   0.00000000000000E+00   6.46456085398461E-05   1.56988148136374E-06   6.62154900212098E-05
      5.51046681880743E-13
      2.40000000000000E-03
     -2.16000000000000E-01  -2.16000000000000E-01   0.00000000000000E+00   0.00000000000000E+00  -6.48800739060485E-05
     -1.57529378713154E-06  -6.64553676931800E-05  -5.56956867767645E-13   0.00000000000000E+00   0.00000000000000E+00
      0.00000000000000E+00   0.00000000000000E+00   6.48805777389919E-05   1.57478995418806E-06   6.64553676931800E-05
      5.56956867767645E-13
      2.50000000000000E-03
     -2.25000000000000E-01  -2.25000000000000E-01   0.00000000000000E+00   0.00000000000000E+00  -6.50809038955868E-05
     -1.57945041669466E-06  -6.66603543122814E-05  -5.62843452737485E-13   0.00000000000000E+00   0.00000000000000E+00
      0.00000000000000E+00   0.00000000000000E+00   6.50814098000789E-05   1.57894451220253E-06   6.66603543122814E-05
      5.62843452737485E-13
      2.60000000000000E-03
     -2.34000000000000E-01  -2.34000000000000E-01   0.00000000000000E+00   0.00000000000000E+00  -6.52529457625105E-05
     -1.58297249929173E-06  -6.68359182618023E-05  -5.68706481176329E-13   0.00000000000000E+00   0.00000000000000E+00
      0.00000000000000E+00   0.00000000000000E+00   6.52534534864245E-05   1.58246477537773E-06   6.68359182618023E-05
      5.68706481176329E-13
      2.70000000000000E-03
     -2.43000000000000E-01  -2.43000000000000E-01   0.00000000000000E+00   0.00000000000000E+00  -6.54007119697227E-05
     -1.58596063470991E-06  -6.69866726044326E-05  -5.74546143928706E-13   0.00000000000000E+00   0.00000000000000E+00
      0.00000000000000E+00   0.00000000000000E+00   6.54012212982609E-05   1.58545130617171E-06   6.69866726044326E-05
      5.74546143928706E-13
      2.80000000000000E-03
     -2.52000000000000E-01  -2.52000000000000E-01   0.00000000000000E+00   0.00000000000000E+00  -6.55280087862838E-05
     -1.58849939717345E-06  -6.71165081834573E-05  -5.80362760895155E-13   0.00000000000000E+00   0.00000000000000E+00
      0.00000000000000E+00   0.00000000000000E+00   6.55285195363723E-05   1.58798864708494E-06   6.71165081834572E-05
      5.80362760895155E-13
      2.90000000000000E-03
     -2.61000000000000E-01  -2.61000000000000E-01   0.00000000000000E+00   0.00000000000000E+00  -6.56380463802048E-05
     -1.59065988758306E-06  -6.72287062677879E-05  -5.86156763004291E-13   0.00000000000000E+00   0.00000000000000E+00
      0.00000000000000E+00   0.00000000000000E+00   6.56385583957333E-05   1.59014787205460E-06   6.72287062677879E-05
      5.86156763004291E-13
      3.00000000000000E-03
     -2.70000000000000E-01  -2.70000000000000E-01   0.00000000000000E+00   0.00000000000000E+00  -6.57335318871988E-05
     -1.59250187863136E-06  -6.73260337658301E-05  -5.91928674100672E-13   0.00000000000000E+00   0.00000000000000E+00
      0.00000000000000E+00   0.00000000000000E+00   6.57340450349795E-05   1.59198873085063E-06   6.73260337658301E-05
      5.91928674100672E-13
      3.10000000000000E-03
     -2.79000000000000E-01  -2.79000000000000E-01   0.00000000000000E+00   0.00000000000000E+00  -6.58167480111968E-05
     -1.59407561871565E-06  -6.74108236299125E-05  -5.97679093215287E-13   0.00000000000000E+00   0.00000000000000E+00
      0.00000000000000E+00   0.00000000000000E+00   6.58172621775356E-05   1.59356145237696E-06   6.74108236299125E-05
      5.97679093215287E-13
      3.20000000000000E-03
     -2.88000000000000E-01  -2.88000000000000E-01   0.00000000000000E+00   0.00000000000000E+00  -6.58896193629427E-05
     -1.59542334946511E-06  -6.74850427124078E-05  -6.03408677603978E-13   0.00000000000000E+00   0.00000000000000E+00
      0.00000000000000E+00   0.00000000000000E+00   6.58901344507281E-05   1.59490826167959E-06   6.74850427124077E-05
      6.03408677603978E-13
      3.30000000000000E-03
     -2.97000000000000E-01  -2.97000000000000E-01   0.00000000000000E+00   0.00000000000000E+00  -6.59537684313534E-05
     -1.59658058252758E-06  -6.75503490138810E-05  -6.09118126855629E-13   0.00000000000000E+00   0.00000000000000E+00
      0.00000000000000E+00   0.00000000000000E+00   6.59542843575881E-05   1.59606465629293E-06   6.75503490138810E-05
      6.09118126855628E-13
      3.40000000000000E-03
     -3.06000000000000E-01  -3.06000000000000E-01   0.00000000000000E+00   0.00000000000000E+00  -6.60105628064812E-05
     -1.59757717373797E-06  -6.76081399802192E-05  -6.14808168290784E-13   0.00000000000000E+00   0.00000000000000E+00
      0.00000000000000E+00   0.00000000000000E+00   6.60110795001845E-05   1.59706048003470E-06   6.76081399802192E-05
      6.14808168290784E-13
      3.50000000000000E-03
     -3.15000000000000E-01  -3.15000000000000E-01   0.00000000000000E+00   0.00000000000000E+00  -6.60611550297858E-05
     -1.59843822662334E-06  -6.76595932564091E-05  -6.20479543795935E-13   0.00000000000000E+00   0.00000000000000E+00
      0.00000000000000E+00   0.00000000000000E+00   6.60616724302148E-05   1.59792082619436E-06   6.76595932564091E-05
      6.20479543795936E-13
      3.60000000000000E-03
     -3.24000000000000E-01  -3.24000000000000E-01   0.00000000000000E+00   0.00000000000000E+00  -6.61065162349742E-05
     -1.59918485212098E-06  -6.77057010870952E-05  -6.26132998171321E-13   0.00000000000000E+00   0.00000000000000E+00
      0.00000000000000E+00   0.00000000000000E+00   6.61070342901127E-05   1.59866679698246E-06   6.77057010870952E-05
      6.26132998171321E-13
      3.70000000000000E-03
     -3.33000000000000E-01  -3.33000000000000E-01   0.00000000000000E+00   0.00000000000000E+00  -6.61474645588182E-05
     -1.59983480717157E-06  -6.77472993659897E-05  -6.31769269012364E-13   0.00000000000000E+00   0.00000000000000E+00
      0.00000000000000E+00   0.00000000000000E+00   6.61479832240937E-05   1.59931614189601E-06   6.77472993659897E-05
      6.31769269012364E-13
      3.80000000000000E-03
     -3.42000000000000E-01  -3.42000000000000E-01   0.00000000000000E+00   0.00000000000000E+00  -6.61846891436130E-05
     -1.60040303132396E-06  -6.77850921749370E-05  -6.37389078097261E-13   0.00000000000000E+00   0.00000000000000E+00
      0.00000000000000E+00   0.00000000000000E+00   6.61852083808072E-05   1.59988379412982E-06   6.77850921749370E-05
      6.37389078097261E-13
      3.90000000000000E-03
     -3.51000000000000E-01  -3.51000000000000E-01   0.00000000000000E+00   0.00000000000000E+00  -6.62187704194967E-05
     -1.60090209751794E-06  -6.78196725170146E-05  -6.42993124215881E-13   0.00000000000000E+00   0.00000000000000E+00
      0.00000000000000E+00   0.00000000000000E+00   6.62192901958195E-05   1.60038232119513E-06   6.78196725170146E-05
      6.42993124215882E-13
      4.00000000000000E-03
     -3.60000000000000E-01  -3.60000000000000E-01   0.00000000000000E+00   0.00000000000000E+00  -6.62501972428904E-05
     -1.60134259069730E-06  -6.78515398335877E-05  -6.48582077347347E-13   0.00000000000000E+00   0.00000000000000E+00
      0.00000000000000E+00   0.00000000000000E+00   6.62507175301944E-05   1.60082230339336E-06   6.78515398335878E-05
      6.48582077347347E-13
      4.10000000000000E-03
     -3.69000000000000E-01  -3.69000000000000E-01   0.00000000000000E+00   0.00000000000000E+00  -6.62793813743315E-05
     -1.60173342577194E-06  -6.78811148001035E-05  -6.54156574074628E-13   0.00000000000000E+00   0.00000000000000E+00
      0.00000000000000E+00   0.00000000000000E+00   6.62799021484436E-05   1.60121265165987E-06   6.78811148001035E-05
      6.54156574074628E-13
      4.20000000000000E-03
     -3.78000000000000E-01  -3.78000000000000E-01   0.00000000000000E+00   0.00000000000000E+00  -6.63066697023138E-05
     -1.60208211463667E-06  -6.79087518169505E-05  -6.59717214113028E-13   0.00000000000000E+00   0.00000000000000E+00
      0.00000000000000E+00   0.00000000000000E+00   6.63071909424680E-05   1.60156087448250E-06   6.79087518169505E-05
      6.59717214113028E-13
      4.30000000000000E-03
     -3.87000000000000E-01  -3.87000000000000E-01   0.00000000000000E+00   0.00000000000000E+00  -6.63323545562997E-05
     -1.60239499041877E-06  -6.79347495467185E-05  -6.65264557824301E-13   0.00000000000000E+00   0.00000000000000E+00
      0.00000000000000E+00   0.00000000000000E+00   6.63328762446546E-05   1.60187330206385E-06   6.79347495467185E-05
      6.65264557824301E-13
      4.40000000000000E-03
     -3.96000000000000E-01  -3.96000000000000E-01   0.00000000000000E+00   0.00000000000000E+00  -6.63566823997905E-05
     -1.60267739582535E-06  -6.79593597956158E-05  -6.70799124588198E-13   0.00000000000000E+00   0.00000000000000E+00
      0.00000000000000E+00   0.00000000000000E+00   6.63572045210192E-05   1.60215527459662E-06   6.79593597956158E-05
      6.70799124588198E-13
      4.50000000000000E-03
     -4.05000000000000E-01  -4.05000000000000E-01   0.00000000000000E+00   0.00000000000000E+00  -6.63798611507519E-05
     -1.60293384136357E-06  -6.79827949921155E-05  -6.76321391907171E-13   0.00000000000000E+00   0.00000000000000E+00
      0.00000000000000E+00   0.00000000000000E+00   6.63803836916929E-05   1.60241130042251E-06   6.79827949921155E-05
      6.76321391907171E-13
      4.60000000000000E-03
     -4.14000000000000E-01  -4.14000000000000E-01   0.00000000000000E+00   0.00000000000000E+00  -6.64020663400572E-05
     -1.60316813827985E-06  -6.80052344783370E-05  -6.81831795126861E-13   0.00000000000000E+00   0.00000000000000E+00
      0.00000000000000E+00   0.00000000000000E+00   6.64025892894173E-05   1.60264518891966E-06   6.80052344783370E-05
      6.81831795126861E-13
      4.70000000000000E-03
     -4.23000000000000E-01  -4.23000000000000E-01   0.00000000000000E+00   0.00000000000000E+00  -6.64234462875835E-05
     -1.60338351028470E-06  -6.80268297978682E-05  -6.87330727663792E-13   0.00000000000000E+00   0.00000000000000E+00
      0.00000000000000E+00   0.00000000000000E+00   6.64239696356846E-05   1.60286016218361E-06   6.80268297978682E-05
      6.87330727663791E-13
      4.80000000000000E-03
     -4.32000000000000E-01  -4.32000000000000E-01   0.00000000000000E+00   0.00000000000000E+00  -6.64441264491328E-05
     -1.60358268747443E-06  -6.80477091366073E-05  -6.92818541641725E-13   0.00000000000000E+00   0.00000000000000E+00
      0.00000000000000E+00   0.00000000000000E+00   6.64446501876954E-05   1.60305894891181E-06   6.80477091366073E-05
      6.92818541641726E-13
      4.90000000000000E-03
     -4.41000000000000E-01  -4.41000000000000E-01   0.00000000000000E+00   0.00000000000000E+00  -6.64642130645472E-05
     -1.60376798531045E-06  -6.80679810498576E-05  -6.98295548848695E-13   0.00000000000000E+00   0.00000000000000E+00
      0.00000000000000E+00   0.00000000000000E+00   6.64647371865061E-05   1.60324386335150E-06   6.80679810498576E-05
      6.98295548848695E-13
      5.00000000000000E-03
     -4.50000000000000E-01  -4.50000000000000E-01   0.00000000000000E+00   0.00000000000000E+00  -6.64837962178292E-05
     -1.60394137105539E-06  -6.80877375888846E-05  -7.03762021937352E-13   0.00000000000000E+00   0.00000000000000E+00
      0.00000000000000E+00   0.00000000000000E+00   6.64843207171755E-05   1.60341687170906E-06   6.80877375888846E-05
      7.03762021937351E-13
      5.10000000000000E-03
     -4.59000000000000E-01  -4.59000000000000E-01   0.00000000000000E+00   0.00000000000000E+00  -6.65029524031795E-05
     -1.60410451967757E-06  -6.81070569228571E-05  -7.09218195801614E-13   0.00000000000000E+00   0.00000000000000E+00
      0.00000000000000E+00   0.00000000000000E+00   6.65034772748250E-05   1.60357964803206E-06   6.81070569228571E-05
      7.09218195801614E-13
      5.20000000000000E-03
     -4.68000000000000E-01  -4.68000000000000E-01   0.00000000000000E+00   0.00000000000000E+00  -6.65217466763584E-05
     -1.60425886091081E-06  -6.81260055372693E-05  -7.14664269072329E-13   0.00000000000000E+00   0.00000000000000E+00
      0.00000000000000E+00   0.00000000000000E+00   6.65222719160195E-05   1.60373362124979E-06   6.81260055372693E-05
      7.14664269072329E-13
      5.30000000000000E-03
     -4.77000000000000E-01  -4.77000000000000E-01   0.00000000000000E+00   0.00000000000000E+00  -6.65402344583529E-05
     -1.60440561888373E-06  -6.81446400772366E-05  -7.20100405683710E-13   0.00000000000000E+00   0.00000000000000E+00
      0.00000000000000E+00   0.00000000000000E+00   6.65407600624503E-05   1.60388001478633E-06   6.81446400772367E-05
      7.20100405683710E-13
      5.40000000000000E-03
     -4.86000000000000E-01  -4.86000000000000E-01   0.00000000000000E+00   0.00000000000000E+00  -6.65584630477348E-05
     -1.60454584550383E-06  -6.81630088932386E-05  -7.25526736470484E-13   0.00000000000000E+00   0.00000000000000E+00
      0.00000000000000E+00   0.00000000000000E+00   6.65589890133076E-05   1.60401987993093E-06   6.81630088932386E-05
      7.25526736470484E-13
      5.50000000000000E-03
     -4.95000000000000E-01  -4.95000000000000E-01   0.00000000000000E+00   0.00000000000000E+00  -6.65764728890271E-05
     -1.60468044858985E-06  -6.81811533376170E-05  -7.30943360763012E-13   0.00000000000000E+00   0.00000000000000E+00
      0.00000000000000E+00   0.00000000000000E+00   6.65769992136585E-05   1.60415412395853E-06   6.81811533376170E-05
      7.30943360763011E-13
      5.60000000000000E-03
     -5.04000000000000E-01  -5.04000000000000E-01   0.00000000000000E+00   0.00000000000000E+00  -6.65942986368111E-05
     -1.60481021558384E-06  -6.81991088523949E-05  -7.36350347954062E-13   0.00000000000000E+00   0.00000000000000E+00
      0.00000000000000E+00   0.00000000000000E+00   6.65948253185630E-05   1.60428353383191E-06   6.81991088523949E-05
      7.36350347954062E-13
      5.70000000000000E-03
     -5.13000000000000E-01  -5.13000000000000E-01   0.00000000000000E+00   0.00000000000000E+00  -6.66119700488276E-05
     -1.60493583353883E-06  -6.82169058823664E-05  -7.41747739016555E-13   0.00000000000000E+00   0.00000000000000E+00
      0.00000000000000E+00   0.00000000000000E+00   6.66124970861856E-05   1.60440879618082E-06   6.82169058823664E-05
      7.41747739016555E-13
      5.80000000000000E-03
     -5.22000000000000E-01  -5.22000000000000E-01   0.00000000000000E+00   0.00000000000000E+00  -6.66295127359018E-05
     -1.60505790596319E-06  -6.82345706418650E-05  -7.47135547956340E-13   0.00000000000000E+00   0.00000000000000E+00
      0.00000000000000E+00   0.00000000000000E+00   6.66300401277259E-05   1.60453051413914E-06   6.82345706418651E-05
      7.47135547956340E-13
      5.90000000000000E-03
     -5.31000000000000E-01  -5.31000000000000E-01   0.00000000000000E+00   0.00000000000000E+00  -6.66469487920620E-05
     -1.60517696700609E-06  -6.82521257590681E-05  -7.52513763185503E-13   0.00000000000000E+00   0.00000000000000E+00
      0.00000000000000E+00   0.00000000000000E+00   6.66474765375440E-05   1.60464922152410E-06   6.82521257590681E-05
      7.52513763185503E-13
      6.00000000000000E-03
     -5.40000000000000E-01  -5.40000000000000E-01   0.00000000000000E+00   0.00000000000000E+00  -6.66642973239073E-05
     -1.60529349338712E-06  -6.82695908172944E-05  -7.57882348823121E-13   0.00000000000000E+00   0.00000000000000E+00
      0.00000000000000E+00   0.00000000000000E+00   6.66648254225337E-05   1.60476539476066E-06   6.82695908172943E-05
      7.57882348823120E-13
      6.10000000000000E-03
     -5.49000000000000E-01  -5.49000000000000E-01   0.00000000000000E+00   0.00000000000000E+00  -6.66815748964664E-05
     -1.60540791440288E-06  -6.82869828108692E-05  -7.63241245882873E-13   0.00000000000000E+00   0.00000000000000E+00
      0.00000000000000E+00   0.00000000000000E+00   6.66821033479857E-05   1.60487946288349E-06   6.82869828108692E-05
      7.63241245882873E-13
      6.20000000000000E-03
     -5.58000000000000E-01  -5.58000000000000E-01   0.00000000000000E+00   0.00000000000000E+00  -6.66987959080636E-05
     -1.60552062028605E-06  -6.83043165283496E-05  -7.68590373384452E-13   0.00000000000000E+00   0.00000000000000E+00
      0.00000000000000E+00   0.00000000000000E+00   6.66993247124573E-05   1.60499181589226E-06   6.83043165283496E-05
      7.68590373384452E-13
      6.30000000000000E-03
     -5.67000000000000E-01  -5.67000000000000E-01   0.00000000000000E+00   0.00000000000000E+00  -6.67159729062194E-05
     -1.60563196914174E-06  -6.83216048753612E-05  -7.73929629365330E-13   0.00000000000000E+00   0.00000000000000E+00
      0.00000000000000E+00   0.00000000000000E+00   6.67165020636766E-05   1.60510281168460E-06   6.83216048753612E-05
      7.73929629365330E-13
      6.40000000000000E-03
     -5.76000000000000E-01  -5.76000000000000E-01   0.00000000000000E+00   0.00000000000000E+00  -6.67331168540334E-05
     -1.60574229264368E-06  -6.83388591466771E-05  -7.79258891795493E-13   0.00000000000000E+00   0.00000000000000E+00
      0.00000000000000E+00   0.00000000000000E+00   6.67336463649277E-05   1.60521278174941E-06   6.83388591466771E-05
      7.79258891795493E-13
      6.50000000000000E-03
     -5.85000000000000E-01  -5.85000000000000E-01   0.00000000000000E+00   0.00000000000000E+00  -6.67502373549760E-05
     -1.60585190063745E-06  -6.83560892556134E-05  -7.84578019399216E-13   0.00000000000000E+00   0.00000000000000E+00
      0.00000000000000E+00   0.00000000000000E+00   6.67507672198457E-05   1.60532203576774E-06   6.83560892556134E-05
      7.84578019399216E-13
      6.60000000000000E-03
     -5.94000000000000E-01  -5.94000000000000E-01   0.00000000000000E+00   0.00000000000000E+00  -6.67673428428040E-05
     -1.60596108476783E-06  -6.83733039275718E-05  -7.89886852385200E-13   0.00000000000000E+00   0.00000000000000E+00
      0.00000000000000E+00   0.00000000000000E+00   6.67678730623339E-05   1.60543086523793E-06   6.83733039275719E-05
      7.89886852385200E-13
      6.70000000000000E-03
     -6.03000000000000E-01  -6.03000000000000E-01   0.00000000000000E+00   0.00000000000000E+00  -6.67844407422045E-05
     -1.60607012122238E-06  -6.83905108634269E-05  -7.95185213088010E-13   0.00000000000000E+00   0.00000000000000E+00
      0.00000000000000E+00   0.00000000000000E+00   6.67849713172095E-05   1.60553954621742E-06   6.83905108634269E-05
      7.95185213088010E-13
      6.80000000000000E-03
     -6.12000000000000E-01  -6.12000000000000E-01   0.00000000000000E+00   0.00000000000000E+00  -6.68015376048615E-05
     -1.60617927266345E-06  -6.84077168775249E-05  -8.00472906524200E-13   0.00000000000000E+00   0.00000000000000E+00
      0.00000000000000E+00   0.00000000000000E+00   6.68020685362716E-05   1.60564834125324E-06   6.84077168775249E-05
      8.00472906524199E-13
      6.90000000000001E-03
     -6.21000000000000E-01  -6.21000000000000E-01   0.00000000000000E+00   0.00000000000000E+00  -6.68186392248868E-05
     -1.60628878940535E-06  -6.84249280142921E-05  -8.05749720866929E-13   0.00000000000000E+00   0.00000000000000E+00
      0.00000000000000E+00   0.00000000000000E+00   6.68191705137343E-05   1.60575750055779E-06   6.84249280142921E-05
      8.05749720866929E-13
      7.00000000000001E-03
     -6.30000000000000E-01  -6.30000000000000E-01   0.00000000000000E+00   0.00000000000000E+00  -6.68357507369084E-05
     -1.60639890988255E-06  -6.84421496467910E-05  -8.11015427843076E-13   0.00000000000000E+00   0.00000000000000E+00
      0.00000000000000E+00   0.00000000000000E+00   6.68362823843151E-05   1.60586726247594E-06   6.84421496467910E-05
      8.11015427843076E-13