DF-ISE text

Info {
  version   = 1.0
  type      = xyplot
  datasets  = [
    "time"
    "electrode_2 OuterVoltage" "electrode_2 InnerVoltage" "electrode_2 QuasiFermiPotential" "electrode_2 DisplacementCurrent" "electrode_2 eCurrent"
    "electrode_2 hCurrent" "electrode_2 TotalCurrent" "electrode_2 Charge" "electrode_1 OuterVoltage" "electrode_1 InnerVoltage"
    "electrode_1 QuasiFermiPotential" "electrode_1 DisplacementCurrent" "electrode_1 eCurrent" "electrode_1 hCurrent" "electrode_1 TotalCurrent"
    "electrode_1 Charge" ]
  functions = [
    Time
    OuterVoltage InnerVoltage QuasiFermiPotential DisplacementCurrent eCurrent
    hCurrent TotalCurrent Charge OuterVoltage InnerVoltage
    QuasiFermiPotential DisplacementCurrent eCurrent hCurrent TotalCurrent
    Charge ]
}

Data {
      0.00000000000000E+00
      0.00000000000000E+00   0.00000000000000E+00   0.00000000000000E+00   0.00000000000000E+00   1.54746660573859E-22
     -3.04267579561983E-29   1.54746630147101E-22  -7.16131747127322E-13   0.00000000000000E+00   0.00000000000000E+00
      0.00000000000000E+00   0.00000000000000E+00  -1.54746660266083E-22   3.01189827118764E-29  -1.54746630147101E-22
      7.16131747127322E-13
      4.00000000000000E-03
     -3.60000000000000E-01  -3.60000000000000E-01   0.00000000000000E+00   0.00000000000000E+00  -4.42708120555627E-15
     -2.36419943846098E-16  -4.66350114940237E-15  -9.35519609223665E-13   0.00000000000000E+00   0.00000000000000E+00
      0.00000000000000E+00   0.00000000000000E+00   4.58712247033653E-15   7.63786790658374E-17   4.66350114940237E-15
      9.35519609223664E-13
      8.37866666666667E-03
     -7.54080000000000E-01  -7.54080000000000E-01   0.00000000000000E+00   0.00000000000000E+00  -4.48851559108836E-15
     -2.38308963256623E-16  -4.72682455434499E-15  -1.11310498319481E-12   0.00000000000000E+00   0.00000000000000E+00
      0.00000000000000E+00   0.00000000000000E+00   4.65039846289286E-15   7.64260914521296E-17   4.72682455434499E-15
      1.11310498319481E-12
      1.31718471111111E-02
     -1.18546624000000E+00  -1.18546624000000E+00   0.00000000000000E+00   0.00000000000000E+00  -4.51894328801903E-15
     -4.65372655322956E-16  -4.98431594334198E-15  -1.25457064353247E-12   0.00000000000000E+00   0.00000000000000E+00
      0.00000000000000E+00   0.00000000000000E+00   4.90785954122862E-15   7.64564021133571E-17   4.98431594334198E-15
      1.25457064353247E-12
      1.84315637854815E-02
     -1.65884074069333E+00  -1.65884074069333E+00   0.00000000000000E+00   0.00000000000000E+00  -4.54309955691579E-15
     -4.78958291917902E-16  -5.02205784883369E-15  -1.40879877548984E-12   0.00000000000000E+00   0.00000000000000E+00
      0.00000000000000E+00   0.00000000000000E+00   4.94557332501498E-15   7.64845238187120E-17   5.02205784883369E-15
      1.40879877548984E-12
      2.42032262161572E-02
     -2.17829035945415E+00  -2.17829035945415E+00   0.00000000000000E+00   0.00000000000000E+00  -4.57037842177246E-15
     -4.78992138539383E-16  -5.04937056031185E-15  -1.57669667147629E-12   0.00000000000000E+00   0.00000000000000E+00
      0.00000000000000E+00   0.00000000000000E+00   4.97285952699380E-15   7.65110333180453E-17   5.04937056031185E-15
      1.57669667147629E-12
      3.05366637900854E-02
     -2.74829974110769E+00  -2.74829974110769E+00   0.00000000000000E+00   0.00000000000000E+00  -4.60752379025006E-15
     -4.79046784609067E-16  -5.08657057485912E-15  -1.75645057238062E-12   0.00000000000000E+00   0.00000000000000E+00
      0.00000000000000E+00   0.00000000000000E+00   5.01003450880837E-15   7.65360660507535E-17   5.08657057485912E-15
      1.75645057238062E-12
      3.74781113711107E-02
     -3.37303002339997E+00  -3.37303002339997E+00   0.00000000000000E+00   0.00000000000000E+00  -4.66640457831995E-15
     -4.80871739003165E-16  -5.14727631732311E-15  -1.92190818865804E-12   0.00000000000000E+00   0.00000000000000E+00
      0.00000000000000E+00   0.00000000000000E+00   5.07071947139797E-15   7.65568459251457E-17   5.14727631732311E-15
      1.92190818865804E-12
      4.50766826564731E-02
     -4.05690143908258E+00  -4.05690143908258E+00   0.00000000000000E+00   0.00000000000000E+00  -4.70470809880423E-15
     -7.93363148039489E-16  -5.49807124684372E-15  -2.07240977086112E-12   0.00000000000000E+00   0.00000000000000E+00
      0.00000000000000E+00   0.00000000000000E+00   5.42149694452060E-15   7.65743023231265E-17   5.49807124684372E-15
      2.07240977086112E-12
      5.34148482136107E-02
     -4.80733633922497E+00  -4.80733633922497E+00   0.00000000000000E+00   0.00000000000000E+00  -4.73750757807864E-15
     -8.01684899601411E-16  -5.53919247768005E-15  -2.23715018565264E-12   0.00000000000000E+00   0.00000000000000E+00
      0.00000000000000E+00   0.00000000000000E+00   5.46260032742168E-15   7.65921502583786E-17   5.53919247768005E-15
      2.23715018565264E-12
      6.25757127723860E-02
     -5.63181414951474E+00  -5.63181414951474E+00   0.00000000000000E+00   0.00000000000000E+00  -4.77387271380141E-15
     -8.02656819369644E-16  -5.57652953317105E-15  -2.41784525690875E-12   0.00000000000000E+00   0.00000000000000E+00
      0.00000000000000E+00   0.00000000000000E+00   5.49991906256090E-15   7.66104706101508E-17   5.57652953317105E-15
      2.41784525690875E-12
      7.25757127723859E-02
     -6.53181414951474E+00  -6.53181414951474E+00   0.00000000000000E+00   0.00000000000000E+00  -4.81777998241009E-15
     -8.04819749653928E-16  -5.62259973206402E-15  -2.61447786819809E-12   0.00000000000000E+00   0.00000000000000E+00
      0.00000000000000E+00   0.00000000000000E+00   5.54597068051829E-15   7.66290515457246E-17   5.62259973206402E-15
      2.61447786819809E-12
      8.25757127723859E-02
     -7.43181414951473E+00  -7.43181414951473E+00   0.00000000000000E+00   0.00000000000000E+00  -4.87103117282543E-15
     -8.08925676462725E-16  -5.67995684928816E-15  -2.80968121469188E-12   0.00000000000000E+00   0.00000000000000E+00
      0.00000000000000E+00   0.00000000000000E+00   5.60331211839702E-15   7.66447308911454E-17   5.67995684928816E-15
      2.80968121469188E-12
      9.25757127723859E-02
     -8.33181414951473E+00  -8.33181414951473E+00   0.00000000000000E+00   0.00000000000000E+00  -4.95197593274921E-15
     -8.15972589369572E-16  -5.76794852211878E-15  -2.99845608741321E-12   0.00000000000000E+00   0.00000000000000E+00
      0.00000000000000E+00   0.00000000000000E+00   5.69130419228608E-15   7.66443298326939E-17   5.76794852211878E-15
      2.99845608741321E-12
      1.02575712772386E-01
     -9.23181414951473E+00  -9.23181414951473E+00   0.00000000000000E+00   0.00000000000000E+00  -5.05150645480469E-15
     -1.27696740389700E-15  -6.32847385870169E-15  -3.13182953031015E-12   0.00000000000000E+00   0.00000000000000E+00
      0.00000000000000E+00   0.00000000000000E+00   6.25180135476192E-15   7.66725039397737E-17   6.32847385870169E-15
      3.13182953031015E-12
      1.12575712772386E-01
     -1.01318141495147E+01  -1.01318141495147E+01   0.00000000000000E+00   0.00000000000000E+00  -5.08165247133018E-15
     -1.31832304087173E-15  -6.39997551220191E-15  -3.25087925758422E-12   0.00000000000000E+00   0.00000000000000E+00
      0.00000000000000E+00   0.00000000000000E+00   6.32329329106542E-15   7.66822211364939E-17   6.39997551220192E-15
      3.25087925758422E-12
      1.22575712772386E-01
     -1.10318141495147E+01  -1.10318141495147E+01   0.00000000000000E+00   0.00000000000000E+00  -5.10359804022832E-15
     -1.33112646641607E-15  -6.43472450664439E-15  -3.36990290659855E-12   0.00000000000000E+00   0.00000000000000E+00
      0.00000000000000E+00   0.00000000000000E+00   6.35803452992962E-15   7.66899767147746E-17   6.43472450664439E-15
      3.36990290659855E-12
      1.32575712772386E-01
     -1.19318141495147E+01  -1.19318141495147E+01   0.00000000000000E+00   0.00000000000000E+00  -5.12391609513314E-15
     -1.34752928526338E-15  -6.47144538039652E-15  -3.48889549621939E-12   0.00000000000000E+00   0.00000000000000E+00
      0.00000000000000E+00   0.00000000000000E+00   6.39474723024520E-15   7.66981501513285E-17   6.47144538039652E-15
      3.48889549621939E-12
      1.42575712772386E-01
     -1.28318141495147E+01  -1.28318141495147E+01   0.00000000000000E+00   0.00000000000000E+00  -5.14408336224901E-15
     -1.36824754273511E-15  -6.51233090498413E-15  -3.60785021090624E-12   0.00000000000000E+00   0.00000000000000E+00
      0.00000000000000E+00   0.00000000000000E+00   6.43562515822922E-15   7.67057467549064E-17   6.51233090498412E-15
      3.60785021090624E-12
      1.52575712772386E-01
     -1.37318141495147E+01  -1.37318141495147E+01   0.00000000000000E+00   0.00000000000000E+00  -5.16470914394250E-15
     -1.39408134290709E-15  -6.55879048684959E-15  -3.72675772439795E-12   0.00000000000000E+00   0.00000000000000E+00
      0.00000000000000E+00   0.00000000000000E+00   6.48207714553532E-15   7.67133413142742E-17   6.55879048684959E-15
      3.72675772439796E-12
      1.62575712772386E-01
     -1.46318141495147E+01  -1.46318141495147E+01   0.00000000000000E+00   0.00000000000000E+00  -5.18618393852716E-15
     -1.42592285904784E-15  -6.61210679757499E-15  -3.84560479825436E-12   0.00000000000000E+00   0.00000000000000E+00
      0.00000000000000E+00   0.00000000000000E+00   6.53538644608474E-15   7.67203514902533E-17   6.61210679757500E-15
      3.84560479825436E-12
      1.72575712772386E-01
     -1.55318141495147E+01  -1.55318141495147E+01   0.00000000000000E+00   0.00000000000000E+00  -5.20887059213584E-15
     -1.46476395775792E-15  -6.67363454989376E-15  -3.96437174708580E-12   0.00000000000000E+00   0.00000000000000E+00
      0.00000000000000E+00   0.00000000000000E+00   6.59690758745139E-15   7.67269624423660E-17   6.67363454989376E-15
      3.96437174708580E-12
      1.82575712772386E-01
     -1.64318141495147E+01  -1.64318141495147E+01   0.00000000000000E+00   0.00000000000000E+00  -5.23320759081454E-15
     -1.51170617595610E-15  -6.74491376677065E-15  -4.08302746184585E-12   0.00000000000000E+00   0.00000000000000E+00
      0.00000000000000E+00   0.00000000000000E+00   6.66818097213652E-15   7.67327946341258E-17   6.74491376677065E-15
      4.08302746184585E-12
      1.92575712772386E-01
     -1.73318141495147E+01  -1.73318141495147E+01   0.00000000000000E+00   0.00000000000000E+00  -5.25982963034434E-15
     -1.56797118559654E-15  -6.82780081594088E-15  -4.20151850491903E-12   0.00000000000000E+00   0.00000000000000E+00
      0.00000000000000E+00   0.00000000000000E+00   6.75106187849036E-15   7.67389374505204E-17   6.82780081594088E-15
      4.20151850491903E-12
      2.02575712772386E-01
     -1.82318141495147E+01  -1.82318141495147E+01   0.00000000000000E+00   0.00000000000000E+00  -5.28980317618266E-15
     -1.63491365761671E-15  -6.92471683379937E-15  -4.31974119068688E-12   0.00000000000000E+00   0.00000000000000E+00
      0.00000000000000E+00   0.00000000000000E+00   6.84797272546237E-15   7.67441083369946E-17   6.92471683379937E-15
      4.31974119068688E-12
      2.12575712772386E-01
     -1.91318141495147E+01  -1.91318141495147E+01   0.00000000000000E+00   0.00000000000000E+00  -5.32523906672963E-15
     -1.71388925113699E-15  -7.03912831786662E-15  -4.43745058270556E-12   0.00000000000000E+00   0.00000000000000E+00
      0.00000000000000E+00   0.00000000000000E+00   6.96251018387673E-15   7.66181339898921E-17   7.03912831786662E-15
      4.43745058270556E-12
      2.22575712772386E-01
     -2.00318141495147E+01  -2.00318141495147E+01   0.00000000000000E+00   0.00000000000000E+00  -5.37219578036217E-15
     -1.80678825898269E-15  -7.17898403934486E-15  -4.55379720584189E-12   0.00000000000000E+00   0.00000000000000E+00
      0.00000000000000E+00   0.00000000000000E+00   7.10223070289017E-15   7.67533364546855E-17   7.17898403934486E-15
      4.55379720584189E-12
      2.32575712772386E-01
     -2.09318141495147E+01  -2.09318141495147E+01   0.00000000000000E+00   0.00000000000000E+00  -5.45617354999771E-15
     -1.91002359148976E-15  -7.36619714148748E-15  -4.66074259802079E-12   0.00000000000000E+00   0.00000000000000E+00
      0.00000000000000E+00   0.00000000000000E+00   7.29149436904544E-15   7.47027724420353E-17   7.36619714148748E-15
      4.66074259802079E-12
      2.42575712772386E-01
     -2.18318141495147E+01  -2.18318141495147E+01   0.00000000000000E+00   0.00000000000000E+00  -5.51483933750053E-15
     -2.70596648829074E-15  -8.22080582579126E-15  -4.74645009363513E-12   0.00000000000000E+00   0.00000000000000E+00
      0.00000000000000E+00   0.00000000000000E+00   8.14405129782966E-15   7.67545279615986E-17   8.22080582579126E-15
      4.74645009363513E-12
      2.52575712772386E-01
     -2.27318141495147E+01  -2.27318141495147E+01   0.00000000000000E+00   0.00000000000000E+00  -5.54044882701845E-15
     -2.82642285459385E-15  -8.36687168161230E-15  -4.83154526472422E-12   0.00000000000000E+00   0.00000000000000E+00
      0.00000000000000E+00   0.00000000000000E+00   8.29011546561566E-15   7.67562159966384E-17   8.36687168161230E-15
      4.83154526472421E-12
      2.62575712772386E-01
     -2.36318141495147E+01  -2.36318141495147E+01   0.00000000000000E+00   0.00000000000000E+00  -5.56013679137910E-15
     -2.94679826305706E-15  -8.50693505443615E-15  -4.91663123811493E-12   0.00000000000000E+00   0.00000000000000E+00
      0.00000000000000E+00   0.00000000000000E+00   8.43017737772024E-15   7.67576767159157E-17   8.50693505443615E-15
      4.91663123811493E-12
      2.72575712772386E-01
     -2.45318141495147E+01  -2.45318141495147E+01   0.00000000000000E+00   0.00000000000000E+00  -5.57799173317993E-15
     -3.07991483283243E-15  -8.65790656601236E-15  -5.00170682380069E-12   0.00000000000000E+00   0.00000000000000E+00
      0.00000000000000E+00   0.00000000000000E+00   8.58114777211709E-15   7.67587938952714E-17   8.65790656601236E-15
      5.00170682380069E-12
      2.82575712772386E-01
     -2.54318141495147E+01  -2.54318141495147E+01   0.00000000000000E+00   0.00000000000000E+00  -5.59524130384738E-15
     -3.22710454124206E-15  -8.82234584508945E-15  -5.08677053697082E-12   0.00000000000000E+00   0.00000000000000E+00
      0.00000000000000E+00   0.00000000000000E+00   8.74558631185380E-15   7.67595332356494E-17   8.82234584508945E-15
      5.08677053697082E-12
      2.92575712772386E-01
     -2.63318141495147E+01  -2.63318141495147E+01   0.00000000000000E+00   0.00000000000000E+00  -5.61217679668835E-15
     -3.39000940608167E-15  -9.00218620277002E-15  -5.17182055101909E-12   0.00000000000000E+00   0.00000000000000E+00
      0.00000000000000E+00   0.00000000000000E+00   8.92611868510310E-15   7.60675176669116E-17   9.00218620277001E-15
      5.17182055101909E-12
      3.02575712772386E-01
     -2.72318141495147E+01  -2.72318141495147E+01   0.00000000000000E+00   0.00000000000000E+00  -5.62977508242523E-15
     -3.56949342714940E-15  -9.19926850957463E-15  -5.25685458422798E-12   0.00000000000000E+00   0.00000000000000E+00
      0.00000000000000E+00   0.00000000000000E+00   9.12250877268315E-15   7.67597368914816E-17   9.19926850957463E-15
      5.25685458422798E-12
      3.12575712772386E-01
     -2.81318141495147E+01  -2.81318141495147E+01   0.00000000000000E+00   0.00000000000000E+00  -5.64753682089701E-15
     -3.76799160126924E-15  -9.41552842216625E-15  -5.34186973536708E-12   0.00000000000000E+00   0.00000000000000E+00
      0.00000000000000E+00   0.00000000000000E+00   9.33876930228481E-15   7.67591198814411E-17   9.41552842216625E-15
      5.34186973536708E-12
      3.22575712772386E-01
     -2.90318141495147E+01  -2.90318141495147E+01   0.00000000000000E+00   0.00000000000000E+00  -5.66585283444102E-15
     -3.98724092117500E-15  -9.65309375561602E-15  -5.42686223789973E-12   0.00000000000000E+00   0.00000000000000E+00
      0.00000000000000E+00   0.00000000000000E+00   9.57633579624673E-15   7.67579593692880E-17   9.65309375561602E-15
      5.42686223789973E-12
      3.32575712772386E-01
     -2.99318141495147E+01  -2.99318141495147E+01   0.00000000000000E+00   0.00000000000000E+00  -5.68488046303390E-15
     -4.22947729629277E-15  -9.91435775932667E-15  -5.51182707925929E-12   0.00000000000000E+00   0.00000000000000E+00
      0.00000000000000E+00   0.00000000000000E+00   9.83760156171665E-15   7.67561976100145E-17   9.91435775932666E-15
      5.51182707925929E-12
      3.42575712772386E-01
     -3.08318141495147E+01  -3.08318141495147E+01   0.00000000000000E+00   0.00000000000000E+00  -5.70479603635962E-15
     -4.49725565610022E-15  -1.02020516924598E-14  -5.59675738561884E-12   0.00000000000000E+00   0.00000000000000E+00
      0.00000000000000E+00   0.00000000000000E+00   1.01252979250521E-14   7.67537674077246E-17   1.02020516924598E-14
      5.59675738561884E-12
      3.52575712772386E-01
     -3.17318141495147E+01  -3.17318141495147E+01   0.00000000000000E+00   0.00000000000000E+00  -5.72581744410883E-15
     -4.79351222740613E-15  -1.05193296715150E-14  -5.68164337508595E-12   0.00000000000000E+00   0.00000000000000E+00
      0.00000000000000E+00   0.00000000000000E+00   1.04425790813824E-14   7.67505901325992E-17   1.05193296715150E-14
      5.68164337508595E-12
      3.62575712772386E-01
     -3.26318141495147E+01  -3.26318141495147E+01   0.00000000000000E+00   0.00000000000000E+00  -5.74823587278376E-15
     -5.12164281584883E-15  -1.08698786886326E-14  -5.76647045828907E-12   0.00000000000000E+00   0.00000000000000E+00
      0.00000000000000E+00   0.00000000000000E+00   1.07931321154236E-14   7.67465732089842E-17   1.08698786886326E-14
      5.76647045828907E-12
      3.72575712772386E-01
     -3.35318141495148E+01  -3.35318141495148E+01   0.00000000000000E+00   0.00000000000000E+00  -5.77247014449547E-15
     -5.48560404742613E-15  -1.12580741919216E-14  -5.85121549527175E-12   0.00000000000000E+00   0.00000000000000E+00
      0.00000000000000E+00   0.00000000000000E+00   1.11813325852332E-14   7.67416066883897E-17   1.12580741919216E-14
      5.85121549527176E-12
      3.82575712772386E-01
     -3.44318141495148E+01  -3.44318141495148E+01   0.00000000000000E+00   0.00000000000000E+00  -5.79917522478989E-15
     -5.89005290683242E-15  -1.16892281316223E-14  -5.93583855880897E-12   0.00000000000000E+00   0.00000000000000E+00
      0.00000000000000E+00   0.00000000000000E+00   1.16124903826631E-14   7.67377489592423E-17   1.16892281316223E-14
      5.93583855880897E-12
      3.92575712772386E-01
     -3.53318141495147E+01  -3.53318141495147E+01   0.00000000000000E+00   0.00000000000000E+00  -5.82924605471781E-15
     -6.33969086480510E-15  -1.21689369195229E-14  -6.02026174860406E-12   0.00000000000000E+00   0.00000000000000E+00
      0.00000000000000E+00   0.00000000000000E+00   1.20929339664842E-14   7.60029530387280E-17   1.21689369195229E-14
      6.02026174860406E-12
      4.02575712772386E-01
     -3.62318141495148E+01  -3.62318141495148E+01   0.00000000000000E+00   0.00000000000000E+00  -5.86572807188636E-15
     -6.84363024601522E-15  -1.27093583179016E-14  -6.10429988854625E-12   0.00000000000000E+00   0.00000000000000E+00
      0.00000000000000E+00   0.00000000000000E+00   1.26326928660725E-14   7.66654518290427E-17   1.27093583179016E-14
      6.10429988854625E-12
      4.12575712772386E-01
     -3.71318141495148E+01  -3.71318141495148E+01   0.00000000000000E+00   0.00000000000000E+00  -5.91434258789231E-15
     -7.40744877569521E-15  -1.33217913635875E-14  -6.18731084372344E-12   0.00000000000000E+00   0.00000000000000E+00
      0.00000000000000E+00   0.00000000000000E+00   1.32450823446912E-14   7.67090188962936E-17   1.33217913635875E-14
      6.18731084372344E-12
      4.22575712772386E-01
     -3.80318141495148E+01  -3.80318141495148E+01   0.00000000000000E+00   0.00000000000000E+00  -5.99768868205035E-15
     -8.02595882313077E-15  -1.40236475051811E-14  -6.26442006023446E-12   0.00000000000000E+00   0.00000000000000E+00
      0.00000000000000E+00   0.00000000000000E+00   1.39470573755997E-14   7.65901295813886E-17   1.40236475051811E-14
      6.26442006023446E-12
      4.32575712772386E-01
     -3.89318141495148E+01  -3.89318141495148E+01   0.00000000000000E+00   0.00000000000000E+00  -6.05695841507808E-15
     -9.67067353079914E-15  -1.57276319458772E-14  -6.33104392290344E-12   0.00000000000000E+00   0.00000000000000E+00
      0.00000000000000E+00   0.00000000000000E+00   1.56509644037511E-14   7.66675421260809E-17   1.57276319458772E-14
      6.33104392290344E-12
      4.42575712772386E-01
     -3.98318141495148E+01  -3.98318141495148E+01   0.00000000000000E+00   0.00000000000000E+00  -6.08462321045674E-15
     -1.04584902829227E-14  -1.65431134933794E-14  -6.39725640173896E-12   0.00000000000000E+00   0.00000000000000E+00
      0.00000000000000E+00   0.00000000000000E+00   1.64672598677522E-14   7.58536256271511E-17   1.65431134933794E-14
      6.39725640173896E-12
      4.52575712772386E-01
     -4.07318141495148E+01  -4.07318141495148E+01   0.00000000000000E+00   0.00000000000000E+00  -6.10545702749618E-15
     -1.11659160659466E-14  -1.72713730934427E-14  -6.46346457932830E-12   0.00000000000000E+00   0.00000000000000E+00
      0.00000000000000E+00   0.00000000000000E+00   1.71947367999388E-14   7.66362935039263E-17   1.72713730934427E-14
      6.46346457932830E-12
      4.62575712772386E-01
     -4.16318141495148E+01  -4.16318141495148E+01   0.00000000000000E+00   0.00000000000000E+00  -6.12324932915265E-15
     -1.19412041066593E-14  -1.80644534358119E-14  -6.52966825378141E-12   0.00000000000000E+00   0.00000000000000E+00
      0.00000000000000E+00   0.00000000000000E+00   1.79882462354865E-14   7.62072003254469E-17   1.80644534358119E-14
      6.52966825378141E-12
      4.72575712772386E-01
     -4.25318141495148E+01  -4.25318141495148E+01   0.00000000000000E+00   0.00000000000000E+00  -6.14007169298482E-15
     -1.27957894546067E-14  -1.89358611475915E-14  -6.59586695695943E-12   0.00000000000000E+00   0.00000000000000E+00
      0.00000000000000E+00   0.00000000000000E+00   1.88596309688609E-14   7.62301787305781E-17   1.89358611475915E-14
      6.59586695695943E-12
      4.82575712772386E-01
     -4.34318141495148E+01  -4.34318141495148E+01   0.00000000000000E+00   0.00000000000000E+00  -6.15627989558735E-15
     -1.37414218913076E-14  -1.98977017868949E-14  -6.66206014381503E-12   0.00000000000000E+00   0.00000000000000E+00
      0.00000000000000E+00   0.00000000000000E+00   1.98218730935605E-14   7.58286933344419E-17   1.98977017868950E-14
      6.66206014381503E-12
      4.92575712772386E-01
     -4.43318141495148E+01  -4.43318141495148E+01   0.00000000000000E+00   0.00000000000000E+00  -6.17248067192402E-15
     -1.47902243499677E-14  -2.09627050218917E-14  -6.72824717474195E-12   0.00000000000000E+00   0.00000000000000E+00
      0.00000000000000E+00   0.00000000000000E+00   2.08868836082073E-14   7.58214136844509E-17   2.09627050218917E-14
      6.72824717474195E-12
      5.02575712772386E-01
     -4.52318141495148E+01  -4.52318141495148E+01   0.00000000000000E+00   0.00000000000000E+00  -6.18874194599512E-15
     -1.59590809727057E-14  -2.21478229187008E-14  -6.79442729241788E-12   0.00000000000000E+00   0.00000000000000E+00
      0.00000000000000E+00   0.00000000000000E+00   2.20720099940271E-14   7.58129246736929E-17   2.21478229187008E-14
      6.79442729241788E-12
      5.12575712772386E-01
     -4.61318141495148E+01  -4.61318141495148E+01   0.00000000000000E+00   0.00000000000000E+00  -6.20513652936486E-15
     -1.72672426077932E-14  -2.34723791371580E-14  -6.86059959111271E-12   0.00000000000000E+00   0.00000000000000E+00
      0.00000000000000E+00   0.00000000000000E+00   2.33967669969918E-14   7.56121401661946E-17   2.34723791371580E-14
      6.86059959111272E-12
      5.22575712772386E-01
     -4.70318141495148E+01  -4.70318141495148E+01   0.00000000000000E+00   0.00000000000000E+00  -6.22192290627450E-15
     -1.87392545022687E-14  -2.49611774085432E-14  -6.92676297532161E-12   0.00000000000000E+00   0.00000000000000E+00
      0.00000000000000E+00   0.00000000000000E+00   2.48855010729506E-14   7.56763355925580E-17   2.49611774085432E-14
      6.92676297532161E-12
      5.32575712772386E-01
     -4.79318141495148E+01  -4.79318141495148E+01   0.00000000000000E+00   0.00000000000000E+00  -6.23932756714435E-15
     -2.04041523099066E-14  -2.66434798770510E-14  -6.99291610294452E-12   0.00000000000000E+00   0.00000000000000E+00
      0.00000000000000E+00   0.00000000000000E+00   2.65670727564279E-14   7.64071206231297E-17   2.66434798770510E-14
      6.99291610294452E-12
      5.42575712772386E-01
     -4.88318141495148E+01  -4.88318141495148E+01   0.00000000000000E+00   0.00000000000000E+00  -6.25676344693479E-15
     -2.22995086690131E-14  -2.85562721159479E-14  -7.05905730554238E-12   0.00000000000000E+00   0.00000000000000E+00
      0.00000000000000E+00   0.00000000000000E+00   2.84804981947342E-14   7.57739212137072E-17   2.85562721159479E-14
      7.05905730554238E-12
      5.52575712772386E-01
     -4.97318141495148E+01  -4.97318141495148E+01   0.00000000000000E+00   0.00000000000000E+00  -6.27497520509018E-15
     -2.44718473742351E-14  -3.07468225793253E-14  -7.12518447362924E-12   0.00000000000000E+00   0.00000000000000E+00
      0.00000000000000E+00   0.00000000000000E+00   3.06710961675825E-14   7.57264117427688E-17   3.07468225793253E-14
      7.12518447362924E-12
      5.62575712772386E-01
     -5.06318141495148E+01  -5.06318141495148E+01   0.00000000000000E+00   0.00000000000000E+00  -6.29387897993044E-15
     -2.69823463392472E-14  -3.32762253191776E-14  -7.19129488689245E-12   0.00000000000000E+00   0.00000000000000E+00
      0.00000000000000E+00   0.00000000000000E+00   3.32005332205625E-14   7.56920986151065E-17   3.32762253191776E-14
      7.19129488689245E-12
      5.72575712772386E-01
     -5.15318141495148E+01  -5.15318141495148E+01   0.00000000000000E+00   0.00000000000000E+00  -6.31370722347276E-15
     -2.99115214508274E-14  -3.62252286743001E-14  -7.25738495435307E-12   0.00000000000000E+00   0.00000000000000E+00
      0.00000000000000E+00   0.00000000000000E+00   3.61492427137839E-14   7.59859605162954E-17   3.62252286743001E-14
      7.25738495435307E-12
      5.82575712772386E-01
     -5.24318141495148E+01  -5.24318141495148E+01   0.00000000000000E+00   0.00000000000000E+00  -6.33441708016406E-15
     -3.33654810358543E-14  -3.96998981160183E-14  -7.32344980056496E-12   0.00000000000000E+00   0.00000000000000E+00
      0.00000000000000E+00   0.00000000000000E+00   3.96238953593083E-14   7.60027567100667E-17   3.96998981160183E-14
      7.32344980056496E-12
      5.92575712772386E-01
     -5.33318141495148E+01  -5.33318141495148E+01   0.00000000000000E+00   0.00000000000000E+00  -6.35586024929156E-15
     -3.74919617973127E-14  -4.38478220466043E-14  -7.38948257417691E-12   0.00000000000000E+00   0.00000000000000E+00
      0.00000000000000E+00   0.00000000000000E+00   4.37731457594799E-14   7.46762871243958E-17   4.38478220466043E-14
      7.38948257417692E-12
      6.02575712772386E-01
     -5.42318141495148E+01  -5.42318141495148E+01   0.00000000000000E+00   0.00000000000000E+00  -6.37965731867616E-15
     -4.24962585314184E-14  -4.88759158500946E-14  -7.45547322193674E-12   0.00000000000000E+00   0.00000000000000E+00
      0.00000000000000E+00   0.00000000000000E+00   4.87998943648044E-14   7.60214852901210E-17   4.88759158500946E-14
      7.45547322193674E-12
      6.12575712772386E-01
     -5.51318141495148E+01  -5.51318141495148E+01   0.00000000000000E+00   0.00000000000000E+00  -6.40490254026450E-15
     -4.86813483579637E-14  -5.50862508982282E-14  -7.52140614499682E-12   0.00000000000000E+00   0.00000000000000E+00
      0.00000000000000E+00   0.00000000000000E+00   5.50101466754744E-14   7.61042227537543E-17   5.50862508982282E-14
      7.52140614499681E-12
      6.22575712772386E-01
     -5.60318141495148E+01  -5.60318141495148E+01   0.00000000000000E+00   0.00000000000000E+00  -6.43238337871652E-15
     -5.65020139570412E-14  -6.29343973357577E-14  -7.58725525352805E-12   0.00000000000000E+00   0.00000000000000E+00
      0.00000000000000E+00   0.00000000000000E+00   6.28589782994399E-14   7.54190363177790E-17   6.29343973357577E-14
      7.58725525352805E-12
      6.32575712772386E-01
     -5.69318141495148E+01  -5.69318141495148E+01   0.00000000000000E+00   0.00000000000000E+00  -6.46325976717363E-15
     -6.66768828119489E-14  -7.31401425791225E-14  -7.65297201098005E-12   0.00000000000000E+00   0.00000000000000E+00
      0.00000000000000E+00   0.00000000000000E+00   7.30658340080487E-14   7.43085710738124E-17   7.31401425791225E-14
      7.65297201098005E-12
      6.42575712772386E-01
     -5.78318141495148E+01  -5.78318141495148E+01   0.00000000000000E+00   0.00000000000000E+00  -6.49965044281542E-15
     -8.04110644693487E-14  -8.69107149121641E-14  -7.71845011479971E-12   0.00000000000000E+00   0.00000000000000E+00
      0.00000000000000E+00   0.00000000000000E+00   8.68376051529600E-14   7.31097592040582E-17   8.69107149121640E-14
      7.71845011479971E-12
      6.52575712772386E-01
     -5.87318141495148E+01  -5.87318141495148E+01   0.00000000000000E+00   0.00000000000000E+00  -6.54725695090995E-15
     -9.98427350469281E-14  -1.06389991997838E-13  -7.78338027096740E-12   0.00000000000000E+00   0.00000000000000E+00
      0.00000000000000E+00   0.00000000000000E+00   1.06315419200897E-13   7.45727969407485E-17   1.06389991997838E-13
      7.78338027096740E-12
      6.62575712772386E-01
     -5.96318141495148E+01  -5.96318141495148E+01   0.00000000000000E+00   0.00000000000000E+00  -6.61986194002363E-15
     -1.28626920362293E-13  -1.35246782302317E-13  -7.84616690486221E-12   0.00000000000000E+00   0.00000000000000E+00
      0.00000000000000E+00   0.00000000000000E+00   1.35173635936190E-13   7.31463661272942E-17   1.35246782302317E-13
      7.84616690486221E-12