DF-ISE text

Info {
  version   = 1.0
  type      = xyplot
  datasets  = [
    "time"
    "electrode_2 OuterVoltage" "electrode_2 InnerVoltage" "electrode_2 QuasiFermiPotential" "electrode_2 DisplacementCurrent" "electrode_2 eCurrent"
    "electrode_2 hCurrent" "electrode_2 TotalCurrent" "electrode_2 Charge" "electrode_1 OuterVoltage" "electrode_1 InnerVoltage"
    "electrode_1 QuasiFermiPotential" "electrode_1 DisplacementCurrent" "electrode_1 eCurrent" "electrode_1 hCurrent" "electrode_1 TotalCurrent"
    "electrode_1 Charge" ]
  functions = [
    Time
    OuterVoltage InnerVoltage QuasiFermiPotential DisplacementCurrent eCurrent
    hCurrent TotalCurrent Charge OuterVoltage InnerVoltage
    QuasiFermiPotential DisplacementCurrent eCurrent hCurrent TotalCurrent
    Charge ]
}

Data {
      0.00000000000000E+00
      0.00000000000000E+00   0.00000000000000E+00   0.00000000000000E+00   0.00000000000000E+00   1.10406053785859E-16
      7.53327672754372E-28   1.10406053786612E-16  -1.45934165126124E-14   0.00000000000000E+00   0.00000000000000E+00
      0.00000000000000E+00   0.00000000000000E+00  -1.10406053785859E-16  -7.53329245726151E-28  -1.10406053786612E-16
      1.45934165126125E-14
      4.00000000000000E-02
      0.00000000000000E+00   0.00000000000000E+00   0.00000000000000E+00   0.00000000000000E+00  -3.73997260460385E-02
     -4.78885880856697E-15  -3.73997260460433E-02  -5.86467246429012E-14   2.00000000000000E-01   2.00000000000000E-01
      0.00000000000000E+00   0.00000000000000E+00   3.73997260460385E-02   4.78870876095749E-15   3.73997260460433E-02
      5.86467246429012E-14
      8.38400000000000E-02
      0.00000000000000E+00   0.00000000000000E+00   0.00000000000000E+00   0.00000000000000E+00  -7.53234940864141E-02
     -4.90192418306993E-15  -7.53234940864190E-02  -1.07295501331717E-13   4.19200000000000E-01   4.19200000000000E-01
      0.00000000000000E+00   0.00000000000000E+00   7.53234940864141E-02   4.90176297833862E-15   7.53234940864190E-02
      1.07295501331717E-13
      1.32005546666667E-01
      0.00000000000000E+00   0.00000000000000E+00   0.00000000000000E+00   0.00000000000000E+00  -1.13430998183937E-01
     -4.97940628040416E-15  -1.13430998183942E-01  -1.61206630879249E-13   6.60027733333333E-01   6.60027733333333E-01
      0.00000000000000E+00   0.00000000000000E+00   1.13430998183937E-01   4.97924249526923E-15   1.13430998183942E-01
      1.61206630879249E-13
      1.84923427271111E-01
      0.00000000000000E+00   0.00000000000000E+00   0.00000000000000E+00   0.00000000000000E+00  -1.51377020516504E-01
     -5.04760664733214E-15  -1.51377020516509E-01  -2.21005544701411E-13   9.24617136355556E-01   9.24617136355556E-01
      0.00000000000000E+00   0.00000000000000E+00   1.51377020516504E-01   5.04744200093731E-15   1.51377020516509E-01
      2.21005544701411E-13
      2.43062538761861E-01
      0.00000000000000E+00   0.00000000000000E+00   0.00000000000000E+00   0.00000000000000E+00  -1.88857007544057E-01
     -5.11123172435470E-15  -1.88857007544062E-01  -2.87361180209619E-13   1.21531269380930E+00   1.21531269380930E+00
      0.00000000000000E+00   0.00000000000000E+00   1.88857007544057E-01   5.11106666181445E-15   1.88857007544062E-01
      2.87361180209619E-13
      3.06938042586364E-01
      0.00000000000000E+00   0.00000000000000E+00   0.00000000000000E+00   0.00000000000000E+00  -2.25599892136945E-01
     -5.17168119973220E-15  -2.25599892136950E-01  -3.60953909328830E-13   1.53469021293182E+00   1.53469021293182E+00
      0.00000000000000E+00   0.00000000000000E+00   2.25599892136945E-01   5.17151584446636E-15   2.25599892136950E-01
      3.60953909328830E-13
      3.77115929454886E-01
      0.00000000000000E+00   0.00000000000000E+00   0.00000000000000E+00   0.00000000000000E+00  -2.61368038654292E-01
     -5.22942697723536E-15  -2.61368038654297E-01  -4.42440574877628E-13   1.88557964727443E+00   1.88557964727443E+00
      0.00000000000000E+00   0.00000000000000E+00   2.61368038654292E-01   5.22926136466930E-15   2.61368038654297E-01
      4.42440574877628E-13
      4.54218034494434E-01
      0.00000000000000E+00   0.00000000000000E+00   0.00000000000000E+00   0.00000000000000E+00  -2.95958781270848E-01
     -5.28461924454018E-15  -2.95958781270853E-01  -5.32438681408926E-13   2.27109017247217E+00   2.27109017247217E+00
      0.00000000000000E+00   0.00000000000000E+00   2.95958781270848E-01   5.28445338427430E-15   2.95958781270853E-01
      5.32438681408926E-13
      5.38927547231219E-01
      0.00000000000000E+00   0.00000000000000E+00   0.00000000000000E+00   0.00000000000000E+00  -3.29205744215804E-01
     -5.33729272879610E-15  -3.29205744215810E-01  -6.31554882501418E-13   2.69463773615609E+00   2.69463773615609E+00
      0.00000000000000E+00   0.00000000000000E+00   3.29205744215804E-01   5.33712662171990E-15   3.29205744215810E-01
      6.31554882501419E-13
      6.31995065224699E-01
      0.00000000000000E+00   0.00000000000000E+00   0.00000000000000E+00   0.00000000000000E+00  -3.60979237423304E-01
     -5.38745024854977E-15  -3.60979237423309E-01  -7.40459577457083E-13   3.15997532612349E+00   3.15997532612349E+00
      0.00000000000000E+00   0.00000000000000E+00   3.60979237423304E-01   5.38728389201839E-15   3.60979237423309E-01
      7.40459577457084E-13
      7.31995065224699E-01
      0.00000000000000E+00   0.00000000000000E+00   0.00000000000000E+00   0.00000000000000E+00  -3.90566887300931E-01
     -5.43412349465792E-15  -3.90566887300936E-01  -8.57338811171979E-13   3.65997532612349E+00   3.65997532612349E+00
      0.00000000000000E+00   0.00000000000000E+00   3.90566887300931E-01   5.43395688948020E-15   3.90566887300936E-01
      8.57338811171979E-13
      8.31995065224699E-01
      0.00000000000000E+00   0.00000000000000E+00   0.00000000000000E+00   0.00000000000000E+00  -4.16290617707663E-01
     -5.47477182285507E-15  -4.16290617707668E-01  -9.74049086324442E-13   4.15997532612349E+00   4.15997532612349E+00
      0.00000000000000E+00   0.00000000000000E+00   4.16290617707663E-01   5.47460498474190E-15   4.16290617707668E-01
      9.74049086324442E-13
      9.31995065224699E-01
      0.00000000000000E+00   0.00000000000000E+00   0.00000000000000E+00   0.00000000000000E+00  -4.38832407666862E-01
     -5.51052342607224E-15  -4.38832407666868E-01  -1.09060485183600E-12   4.65997532612349E+00   4.65997532612349E+00
      0.00000000000000E+00   0.00000000000000E+00   4.38832407666862E-01   5.51035636766354E-15   4.38832407666868E-01
      1.09060485183600E-12
      1.00000000000000E+00
      0.00000000000000E+00   0.00000000000000E+00   0.00000000000000E+00   0.00000000000000E+00  -4.52622436114448E-01
     -5.53248991257880E-15  -4.52622436114453E-01  -1.16978517396043E-12   5.00000000000000E+00   5.00000000000000E+00
      0.00000000000000E+00   0.00000000000000E+00   4.52622436114448E-01   5.53232271078575E-15   4.52622436114453E-01
      1.16978517396043E-12
      0.00000000000000E+00
      0.00000000000000E+00   0.00000000000000E+00   0.00000000000000E+00   0.00000000000000E+00  -4.52622436114448E-01
     -5.53248991257880E-15  -4.52622436114453E-01  -1.16978517396043E-12   5.00000000000000E+00   5.00000000000000E+00
      0.00000000000000E+00   0.00000000000000E+00   4.52622436114448E-01   5.53232271078575E-15   4.52622436114453E-01
      1.16978517396043E-12
}
